
     Program PWSCF v.6.8 starts on 27Feb2023 at 13:49:18 

     This program is part of the open-source Quantum ESPRESSO suite
     for quantum simulation of materials; please cite
         "P. Giannozzi et al., J. Phys.:Condens. Matter 21 395502 (2009);
         "P. Giannozzi et al., J. Phys.:Condens. Matter 29 465901 (2017);
         "P. Giannozzi et al., J. Chem. Phys. 152 154105 (2020);
          URL http://www.quantum-espresso.org", 
     in publications or presentations arising from this work. More details at
     http://www.quantum-espresso.org/quote

     Parallel version (MPI & OpenMP), running on      80 processor cores
     Number of MPI processes:                80
     Threads/MPI process:                     1

     MPI processes distributed on     2 nodes
     K-points division:     npool     =       2
     R & G space division:  proc/nbgrp/npool/nimage =      40
     182739 MiB available memory on the printing compute node when the environment starts
 
     Reading input from nii2.vcrelax.in

     Current dimensions of program PWSCF are:
     Max number of different atomic species (ntypx) = 10
     Max number of k-points (npk) =  40000
     Max angular momentum in pseudopotentials (lmaxx) =  4

     --------------------------------------------
     DFT-D3 Dispersion Correction (3-body terms):
     --------------------------------------------
       Reference C6 values for interpolation: 

         atom   Coordination number   C6
         Ni         0.000          1149.49
         Ni         1.794           356.66
         Ni         6.546           257.56
         Ni         6.292           283.75
         I          0.000           703.93
         I          0.997           717.00

       Values used:

         atom   Coordination number  R0_AB[au]  C6      C8
         Ni         1.889            3.162    356.66  29885.75
         Ni         1.889            3.162    356.66  29885.75
         I          1.964            3.532    717.00  65856.00
         I          1.964            3.532    717.00  65856.00
         I          1.964            3.532    717.00  65856.00
         I          1.964            3.532    717.00  65856.00

         Molecular C6 ( Ry / a.u.^6 ) =     20916.35

     Found symmetry operation: I + (  0.5000 -0.5000  0.0000)
     This is a supercell, fractional translations are disabled

     Subspace diagonalization in iterative solution of the eigenvalue problem:
     one sub-group per band group will be used
     scalapack distributed-memory algorithm (size of sub-group:  6*  6 procs)

 
     Parallelization info
     --------------------
     sticks:   dense  smooth     PW     G-vecs:    dense   smooth      PW
     Min          94      90     24                 8294     7799    1114
     Max          95      91     25                 8302     7808    1125
     Sum        3775    3619    989               331869   312069   44823
 
     Using Slab Decomposition
 


     bravais-lattice index     =          -12
     lattice parameter (alat)  =      12.7840  a.u.
     unit-cell volume          =    1757.2626 (a.u.)^3
     number of atoms/cell      =            6
     number of atomic types    =            2
     number of electrons       =        64.00
     number of Kohn-Sham states=           38
     kinetic-energy cutoff     =     120.0000  Ry
     charge density cutoff     =     500.0000  Ry
     scf convergence threshold =      1.0E-06
     mixing beta               =       0.4000
     number of iterations used =            8  plain     mixing
     energy convergence thresh.=      1.0E-04
     force convergence thresh. =      1.0E-03
     press convergence thresh. =      5.0E-01
     Exchange-correlation= PBE
                           (   1   4   3   4   0   0   0)
     nstep                     =           50


     celldm(1)=  12.783997  celldm(2)=   0.579749  celldm(3)=   1.450776
     celldm(4)=   0.000000  celldm(5)=  -0.004014  celldm(6)=   0.000000

     crystal axes: (cart. coord. in units of alat)
               a(1) = (   1.000000   0.000000   0.000000 )  
               a(2) = (   0.000000   0.579749   0.000000 )  
               a(3) = (  -0.005824   0.000000   1.450764 )  

     reciprocal axes: (cart. coord. in units 2 pi/alat)
               b(1) = (  1.000000  0.000000  0.004014 )  
               b(2) = (  0.000000  1.724885  0.000000 )  
               b(3) = (  0.000000  0.000000  0.689292 )  


     PseudoPot. # 1 for Ni read from file:
     /ptmp/jojaibal/andrey/nii2-magnons/pseudo/Ni.upf
     MD5 check sum: 14a7e289c5fff9cacaba393040e62f02
     Pseudo is Norm-conserving + core correction, Zval = 18.0
     Generated using ONCVPSP code by D. R. Hamann
     Using radial grid of 1372 points,  6 beta functions with: 
                l(1) =   0
                l(2) =   0
                l(3) =   1
                l(4) =   1
                l(5) =   2
                l(6) =   2

     PseudoPot. # 2 for I  read from file:
     /ptmp/jojaibal/andrey/nii2-magnons/pseudo/I.upf
     MD5 check sum: 301f7009ca0a2b18b0adf53dca02d42f
     Pseudo is Norm-conserving + core correction, Zval =  7.0
     Generated using ONCVPSP code by D. R. Hamann
     Using radial grid of 1210 points,  6 beta functions with: 
                l(1) =   0
                l(2) =   0
                l(3) =   1
                l(4) =   1
                l(5) =   2
                l(6) =   2

     atomic species   valence    mass     pseudopotential
        Ni            18.00    58.69340     Ni( 1.00)
        I              7.00   126.90447     I ( 1.00)

     Starting magnetic structure 
     atomic species   magnetization
        Ni           0.278
        I            0.100

      2 Sym. Ops. (no inversion) found



   Cartesian axes

     site n.     atom                  positions (alat units)
         1           Ni  tau(   1) = (   0.4985906   0.0000000   0.3510850  )
         2           Ni  tau(   2) = (  -0.0014094   0.2898744   0.3510850  )
         3           I   tau(   3) = (   0.2307813   0.0000000   0.7021700  )
         4           I   tau(   4) = (   0.7307813   0.2898744   0.7021700  )
         5           I   tau(   5) = (   0.7664000   0.0000000   0.0000000  )
         6           I   tau(   6) = (   0.2664000   0.2898744   0.0000000  )

     number of k points=    80  Marzari-Vanderbilt smearing, width (Ry)=  0.0015
                       cart. coord. in units 2pi/alat
        k(    1) = (   0.0000000   0.0000000   0.0000000), wk =   0.0046296
        k(    2) = (   0.0000000   0.0000000   0.1148820), wk =   0.0092593
        k(    3) = (   0.0000000   0.0000000   0.2297639), wk =   0.0092593
        k(    4) = (   0.0000000   0.0000000  -0.3446459), wk =   0.0046296
        k(    5) = (   0.0000000   0.2874809   0.0000000), wk =   0.0092593
        k(    6) = (   0.0000000   0.2874809   0.1148820), wk =   0.0185185
        k(    7) = (   0.0000000   0.2874809   0.2297639), wk =   0.0185185
        k(    8) = (   0.0000000   0.2874809  -0.3446459), wk =   0.0092593
        k(    9) = (   0.0000000   0.5749618   0.0000000), wk =   0.0092593
        k(   10) = (   0.0000000   0.5749618   0.1148820), wk =   0.0185185
        k(   11) = (   0.0000000   0.5749618   0.2297639), wk =   0.0185185
        k(   12) = (   0.0000000   0.5749618  -0.3446459), wk =   0.0092593
        k(   13) = (   0.0000000  -0.8624426   0.0000000), wk =   0.0046296
        k(   14) = (   0.0000000  -0.8624426   0.1148820), wk =   0.0092593
        k(   15) = (   0.0000000  -0.8624426   0.2297639), wk =   0.0092593
        k(   16) = (   0.0000000  -0.8624426  -0.3446459), wk =   0.0046296
        k(   17) = (   0.1666667   0.0000000   0.0006690), wk =   0.0092593
        k(   18) = (   0.1666667   0.0000000   0.1155510), wk =   0.0092593
        k(   19) = (   0.1666667   0.0000000   0.2304330), wk =   0.0092593
        k(   20) = (   0.1666667   0.0000000  -0.3439769), wk =   0.0092593
        k(   21) = (   0.1666667   0.0000000  -0.2290949), wk =   0.0092593
        k(   22) = (   0.1666667   0.0000000  -0.1142129), wk =   0.0092593
        k(   23) = (   0.1666667   0.2874809   0.0006690), wk =   0.0185185
        k(   24) = (   0.1666667   0.2874809   0.1155510), wk =   0.0185185
        k(   25) = (   0.1666667   0.2874809   0.2304330), wk =   0.0185185
        k(   26) = (   0.1666667   0.2874809  -0.3439769), wk =   0.0185185
        k(   27) = (   0.1666667   0.2874809  -0.2290949), wk =   0.0185185
        k(   28) = (   0.1666667   0.2874809  -0.1142129), wk =   0.0185185
        k(   29) = (   0.1666667   0.5749618   0.0006690), wk =   0.0185185
        k(   30) = (   0.1666667   0.5749618   0.1155510), wk =   0.0185185
        k(   31) = (   0.1666667   0.5749618   0.2304330), wk =   0.0185185
        k(   32) = (   0.1666667   0.5749618  -0.3439769), wk =   0.0185185
        k(   33) = (   0.1666667   0.5749618  -0.2290949), wk =   0.0185185
        k(   34) = (   0.1666667   0.5749618  -0.1142129), wk =   0.0185185
        k(   35) = (   0.1666667  -0.8624426   0.0006690), wk =   0.0092593
        k(   36) = (   0.1666667  -0.8624426   0.1155510), wk =   0.0092593
        k(   37) = (   0.1666667  -0.8624426   0.2304330), wk =   0.0092593
        k(   38) = (   0.1666667  -0.8624426  -0.3439769), wk =   0.0092593
        k(   39) = (   0.1666667  -0.8624426  -0.2290949), wk =   0.0092593
        k(   40) = (   0.1666667  -0.8624426  -0.1142129), wk =   0.0092593
        k(   41) = (   0.3333333   0.0000000   0.0013381), wk =   0.0092593
        k(   42) = (   0.3333333   0.0000000   0.1162201), wk =   0.0092593
        k(   43) = (   0.3333333   0.0000000   0.2311020), wk =   0.0092593
        k(   44) = (   0.3333333   0.0000000  -0.3433078), wk =   0.0092593
        k(   45) = (   0.3333333   0.0000000  -0.2284258), wk =   0.0092593
        k(   46) = (   0.3333333   0.0000000  -0.1135439), wk =   0.0092593
        k(   47) = (   0.3333333   0.2874809   0.0013381), wk =   0.0185185
        k(   48) = (   0.3333333   0.2874809   0.1162201), wk =   0.0185185
        k(   49) = (   0.3333333   0.2874809   0.2311020), wk =   0.0185185
        k(   50) = (   0.3333333   0.2874809  -0.3433078), wk =   0.0185185
        k(   51) = (   0.3333333   0.2874809  -0.2284258), wk =   0.0185185
        k(   52) = (   0.3333333   0.2874809  -0.1135439), wk =   0.0185185
        k(   53) = (   0.3333333   0.5749618   0.0013381), wk =   0.0185185
        k(   54) = (   0.3333333   0.5749618   0.1162201), wk =   0.0185185
        k(   55) = (   0.3333333   0.5749618   0.2311020), wk =   0.0185185
        k(   56) = (   0.3333333   0.5749618  -0.3433078), wk =   0.0185185
        k(   57) = (   0.3333333   0.5749618  -0.2284258), wk =   0.0185185
        k(   58) = (   0.3333333   0.5749618  -0.1135439), wk =   0.0185185
        k(   59) = (   0.3333333  -0.8624426   0.0013381), wk =   0.0092593
        k(   60) = (   0.3333333  -0.8624426   0.1162201), wk =   0.0092593
        k(   61) = (   0.3333333  -0.8624426   0.2311020), wk =   0.0092593
        k(   62) = (   0.3333333  -0.8624426  -0.3433078), wk =   0.0092593
        k(   63) = (   0.3333333  -0.8624426  -0.2284258), wk =   0.0092593
        k(   64) = (   0.3333333  -0.8624426  -0.1135439), wk =   0.0092593
        k(   65) = (  -0.5000000   0.0000000  -0.0020071), wk =   0.0046296
        k(   66) = (  -0.5000000   0.0000000   0.1128748), wk =   0.0092593
        k(   67) = (  -0.5000000   0.0000000   0.2277568), wk =   0.0092593
        k(   68) = (  -0.5000000   0.0000000  -0.3466530), wk =   0.0046296
        k(   69) = (  -0.5000000   0.2874809  -0.0020071), wk =   0.0092593
        k(   70) = (  -0.5000000   0.2874809   0.1128748), wk =   0.0185185
        k(   71) = (  -0.5000000   0.2874809   0.2277568), wk =   0.0185185
        k(   72) = (  -0.5000000   0.2874809  -0.3466530), wk =   0.0092593
        k(   73) = (  -0.5000000   0.5749618  -0.0020071), wk =   0.0092593
        k(   74) = (  -0.5000000   0.5749618   0.1128748), wk =   0.0185185
        k(   75) = (  -0.5000000   0.5749618   0.2277568), wk =   0.0185185
        k(   76) = (  -0.5000000   0.5749618  -0.3466530), wk =   0.0092593
        k(   77) = (  -0.5000000  -0.8624426  -0.0020071), wk =   0.0046296
        k(   78) = (  -0.5000000  -0.8624426   0.1128748), wk =   0.0092593
        k(   79) = (  -0.5000000  -0.8624426   0.2277568), wk =   0.0092593
        k(   80) = (  -0.5000000  -0.8624426  -0.3466530), wk =   0.0046296

     Dense  grid:   331869 G-vectors     FFT dimensions: (  96,  54, 135)

     Smooth grid:   312069 G-vectors     FFT dimensions: (  90,  54, 135)

     Estimated max dynamical RAM per process >      65.36 MB

     Estimated total dynamical RAM >       4.95 GB
     Generating pointlists ...
     new r_m :   0.1821 (alat units)  2.3286 (a.u.) for type    1
     new r_m :   0.1821 (alat units)  2.3286 (a.u.) for type    2

     Initial potential from superposition of free atoms

     starting charge   63.99922, renormalised to   64.00000
     Starting wfcs are   36 randomized atomic wfcs +    2 random wfcs

     total cpu time spent up to now is       11.6 secs

     Self-consistent Calculation

     iteration #  1     ecut=   120.00 Ry     beta= 0.40
     Davidson diagonalization with overlap
     ethr =  1.00E-02,  avg # of iterations =  4.8

     total cpu time spent up to now is       22.3 secs

     total energy              =    -773.85765250 Ry
     estimated scf accuracy    <       1.98440330 Ry

     total magnetization       =     3.57 Bohr mag/cell
     absolute magnetization    =     3.80 Bohr mag/cell

     iteration #  2     ecut=   120.00 Ry     beta= 0.40
     Davidson diagonalization with overlap
     ethr =  3.10E-03,  avg # of iterations =  2.1

     total cpu time spent up to now is       31.3 secs

     total energy              =    -773.16216118 Ry
     estimated scf accuracy    <      10.17543104 Ry

     total magnetization       =     8.00 Bohr mag/cell
     absolute magnetization    =     8.10 Bohr mag/cell

     iteration #  3     ecut=   120.00 Ry     beta= 0.40
     Davidson diagonalization with overlap
     ethr =  3.10E-03,  avg # of iterations =  2.1

     total cpu time spent up to now is       40.4 secs

     total energy              =    -774.23951109 Ry
     estimated scf accuracy    <       2.44414600 Ry

     total magnetization       =     2.37 Bohr mag/cell
     absolute magnetization    =     2.70 Bohr mag/cell

     iteration #  4     ecut=   120.00 Ry     beta= 0.40
     Davidson diagonalization with overlap
     ethr =  3.10E-03,  avg # of iterations =  1.0

     total cpu time spent up to now is       47.7 secs

     total energy              =    -774.41349026 Ry
     estimated scf accuracy    <       0.62159098 Ry

     total magnetization       =     4.00 Bohr mag/cell
     absolute magnetization    =     4.15 Bohr mag/cell

     iteration #  5     ecut=   120.00 Ry     beta= 0.40
     Davidson diagonalization with overlap
     ethr =  9.71E-04,  avg # of iterations =  1.0

     total cpu time spent up to now is       55.0 secs

     total energy              =    -774.42002067 Ry
     estimated scf accuracy    <       0.18665810 Ry

     total magnetization       =     3.90 Bohr mag/cell
     absolute magnetization    =     4.01 Bohr mag/cell

     iteration #  6     ecut=   120.00 Ry     beta= 0.40
     Davidson diagonalization with overlap
     ethr =  2.92E-04,  avg # of iterations =  1.1

     total cpu time spent up to now is       62.4 secs

     total energy              =    -774.40201898 Ry
     estimated scf accuracy    <       0.79774089 Ry

     total magnetization       =     3.61 Bohr mag/cell
     absolute magnetization    =     3.74 Bohr mag/cell

     iteration #  7     ecut=   120.00 Ry     beta= 0.40
     Davidson diagonalization with overlap
     ethr =  2.92E-04,  avg # of iterations =  1.1

     total cpu time spent up to now is       69.6 secs

     total energy              =    -774.42495398 Ry
     estimated scf accuracy    <       0.03242759 Ry

     total magnetization       =     3.64 Bohr mag/cell
     absolute magnetization    =     3.75 Bohr mag/cell

     iteration #  8     ecut=   120.00 Ry     beta= 0.40
     Davidson diagonalization with overlap
     ethr =  5.07E-05,  avg # of iterations =  1.8

     total cpu time spent up to now is       77.6 secs

     total energy              =    -774.42575150 Ry
     estimated scf accuracy    <       0.00801183 Ry

     total magnetization       =     3.62 Bohr mag/cell
     absolute magnetization    =     3.74 Bohr mag/cell

     iteration #  9     ecut=   120.00 Ry     beta= 0.40
     Davidson diagonalization with overlap
     ethr =  1.25E-05,  avg # of iterations =  3.3

     total cpu time spent up to now is       87.3 secs

     total energy              =    -774.42604854 Ry
     estimated scf accuracy    <       0.00552357 Ry

     total magnetization       =     3.62 Bohr mag/cell
     absolute magnetization    =     3.74 Bohr mag/cell

     iteration # 10     ecut=   120.00 Ry     beta= 0.40
     Davidson diagonalization with overlap
     ethr =  8.63E-06,  avg # of iterations =  1.1

     total cpu time spent up to now is       94.6 secs

     total energy              =    -774.42601339 Ry
     estimated scf accuracy    <       0.00413124 Ry

     total magnetization       =     3.62 Bohr mag/cell
     absolute magnetization    =     3.74 Bohr mag/cell

     iteration # 11     ecut=   120.00 Ry     beta= 0.40
     Davidson diagonalization with overlap
     ethr =  6.46E-06,  avg # of iterations =  1.8

     total cpu time spent up to now is      102.8 secs

     total energy              =    -774.42613886 Ry
     estimated scf accuracy    <       0.00118857 Ry

     total magnetization       =     3.62 Bohr mag/cell
     absolute magnetization    =     3.74 Bohr mag/cell

     iteration # 12     ecut=   120.00 Ry     beta= 0.40
     Davidson diagonalization with overlap
     ethr =  1.86E-06,  avg # of iterations =  2.8

     total cpu time spent up to now is      112.0 secs

     total energy              =    -774.42619441 Ry
     estimated scf accuracy    <       0.00028019 Ry

     total magnetization       =     3.62 Bohr mag/cell
     absolute magnetization    =     3.74 Bohr mag/cell

     iteration # 13     ecut=   120.00 Ry     beta= 0.40
     Davidson diagonalization with overlap
     ethr =  4.38E-07,  avg # of iterations =  1.0

     total cpu time spent up to now is      119.2 secs

     total energy              =    -774.42619977 Ry
     estimated scf accuracy    <       0.00003392 Ry

     total magnetization       =     3.62 Bohr mag/cell
     absolute magnetization    =     3.74 Bohr mag/cell

     iteration # 14     ecut=   120.00 Ry     beta= 0.40
     Davidson diagonalization with overlap
     ethr =  5.30E-08,  avg # of iterations =  1.1

     total cpu time spent up to now is      126.6 secs

     total energy              =    -774.42620192 Ry
     estimated scf accuracy    <       0.00001406 Ry

     total magnetization       =     3.62 Bohr mag/cell
     absolute magnetization    =     3.74 Bohr mag/cell

     iteration # 15     ecut=   120.00 Ry     beta= 0.40
     Davidson diagonalization with overlap
     ethr =  2.20E-08,  avg # of iterations =  1.0

     total cpu time spent up to now is      133.7 secs

     total energy              =    -774.42620325 Ry
     estimated scf accuracy    <       0.00000174 Ry

     total magnetization       =     3.62 Bohr mag/cell
     absolute magnetization    =     3.74 Bohr mag/cell

     iteration # 16     ecut=   120.00 Ry     beta= 0.40
     Davidson diagonalization with overlap
     ethr =  2.72E-09,  avg # of iterations =  2.2
 
     Magnetic moment per site  (integrated on atomic sphere of radius R)
     atom   1 (R=0.182)  charge= 16.8499  magn=  1.2358
     atom   2 (R=0.182)  charge= 16.8490  magn=  1.2365
     atom   3 (R=0.182)  charge=  4.7000  magn=  0.2171
     atom   4 (R=0.182)  charge=  4.7000  magn=  0.2171
     atom   5 (R=0.182)  charge=  4.7001  magn=  0.2171
     atom   6 (R=0.182)  charge=  4.6999  magn=  0.2171

     total cpu time spent up to now is      143.2 secs

     End of self-consistent calculation

     Number of k-points >= 100: set verbosity='high' to print the bands.

     the Fermi energy is     2.2826 ev

!    total energy              =    -774.42620347 Ry
     estimated scf accuracy    <       0.00000093 Ry
     smearing contrib. (-TS)   =      -0.00000171 Ry
     internal energy E=F+TS    =    -774.42620176 Ry

     The total energy is F=E-TS. E is the sum of the following terms:
     one-electron contribution =    -900.56410811 Ry
     hartree contribution      =     463.51058245 Ry
     xc contribution           =    -116.99675216 Ry
     ewald contribution        =    -220.30190790 Ry
     DFT-D3 Dispersion         =      -0.07401604 Ry

     total magnetization       =     3.62 Bohr mag/cell
     absolute magnetization    =     3.74 Bohr mag/cell

     convergence has been achieved in  16 iterations

     Forces acting on atoms (cartesian axes, Ry/au):

     atom    1 type  1   force =    -0.00000746    0.00000000   -0.00000214
     atom    2 type  1   force =     0.00000582    0.00000000   -0.00000378
     atom    3 type  2   force =     0.00862859    0.00000000   -0.06448118
     atom    4 type  2   force =     0.00863098    0.00000000   -0.06447221
     atom    5 type  2   force =    -0.00862711    0.00000000    0.06448034
     atom    6 type  2   force =    -0.00863081    0.00000000    0.06447896

     Total force =     0.130106     Total SCF correction =     0.000870


     Computing stress (Cartesian axis) and pressure

          total   stress  (Ry/bohr**3)                   (kbar)     P=      -47.55
  -0.00017577   0.00000000   0.00008777          -25.86        0.00       12.91
   0.00000000  -0.00009359   0.00000000            0.00      -13.77        0.00
   0.00008777   0.00000000  -0.00070042           12.91        0.00     -103.03


     BFGS Geometry Optimization
     Energy error            =      0.0E+00 Ry
     Gradient error          =      6.4E-02 Ry/Bohr
     Cell gradient error     =      1.0E+02 kbar

     number of scf cycles    =   1
     number of bfgs steps    =   0

     enthalpy           new  =    -774.4262034678 Ry

     new trust radius        =       0.1479546585 bohr
ibrav =    -12
 celldm(1) =     12.72785358
 celldm(2) =      0.58094356
 celldm(3) =      1.43163782
 celldm(5) =      0.00036948
Input lattice vectors:
     0.99560587     0.00000000     0.00219429
     0.00000000     0.57839222     0.00000000
    -0.00261479     0.00000000     1.42534807
New lattice vectors in INITIAL alat:
     0.99560829     0.00000000     0.00000000
     0.00000000     0.57839222     0.00000000
     0.00052664     0.00000000     1.42535038
New lattice vectors in NEW alat (for information only):
     1.00000000     0.00000000     0.00000000
     0.00000000     0.58094356     0.00000000
     0.00052896     0.00000000     1.43163772
Discrepancy in bohr =     0.002194    0.000000    0.003141
     new conv_thr            =       0.0000010000 Ry

     new unit-cell volume =   1714.87545 a.u.^3 (   254.11832 Ang^3 )
     density =      4.08410 g/cm^3

CELL_PARAMETERS (alat= 12.78399723)
   0.995608286   0.000000000   0.000000000
   0.000000000   0.578392219   0.000000000
   0.000526642   0.000000000   1.425350376

ATOMIC_POSITIONS (crystal)
Ni            0.4999994156        0.0000000000        0.2419998847
Ni            0.0000004540        0.5000000000        0.2419997964
I             0.2342547046        0.0000000000        0.4805232823
I             0.7342548943        0.5000000000        0.4805237660
I             0.7657454106        0.0000000000        0.0034766727
I             0.2657451208        0.5000000000        0.0034765979



     Writing output data file ./tmp/monoclinic.save/
     NEW-OLD atomic charge density approx. for the potential
     extrapolated charge   62.41811, renormalised to   64.00000
     Generating pointlists ...
     new r_m :   0.1777 (alat units)  2.2714 (a.u.) for type    1
     new r_m :   0.1777 (alat units)  2.2714 (a.u.) for type    2

     total cpu time spent up to now is      160.1 secs

     Self-consistent Calculation

     iteration #  1     ecut=   120.00 Ry     beta= 0.40
     Davidson diagonalization with overlap
     c_bands:  1 eigenvalues not converged
     c_bands:  1 eigenvalues not converged
     c_bands:  1 eigenvalues not converged
     ethr =  1.00E-06,  avg # of iterations = 11.6

     total cpu time spent up to now is      188.3 secs

     total energy              =    -767.91767771 Ry
     estimated scf accuracy    <       9.44914582 Ry

     total magnetization       =     0.88 Bohr mag/cell
     absolute magnetization    =     1.02 Bohr mag/cell

     iteration #  2     ecut=   120.00 Ry     beta= 0.40
     Davidson diagonalization with overlap
     ethr =  1.00E-02,  avg # of iterations =  6.6

     total cpu time spent up to now is      203.9 secs

     total energy              =    -768.06393188 Ry
     estimated scf accuracy    <     202.80362021 Ry

     total magnetization       =     0.21 Bohr mag/cell
     absolute magnetization    =     0.25 Bohr mag/cell

     iteration #  3     ecut=   120.00 Ry     beta= 0.40
     Davidson diagonalization with overlap
     ethr =  1.00E-02,  avg # of iterations =  9.4

     total cpu time spent up to now is      220.9 secs

     total energy              =    -772.85941123 Ry
     estimated scf accuracy    <      28.94717089 Ry

     total magnetization       =     1.02 Bohr mag/cell
     absolute magnetization    =     1.10 Bohr mag/cell

     iteration #  4     ecut=   120.00 Ry     beta= 0.40
     Davidson diagonalization with overlap
     ethr =  1.00E-02,  avg # of iterations =  2.2

     total cpu time spent up to now is      229.3 secs

     total energy              =    -770.34592098 Ry
     estimated scf accuracy    <      22.14757863 Ry

     total magnetization       =     1.32 Bohr mag/cell
     absolute magnetization    =     1.35 Bohr mag/cell

     iteration #  5     ecut=   120.00 Ry     beta= 0.40
     Davidson diagonalization with overlap
     ethr =  1.00E-02,  avg # of iterations =  5.3

     total cpu time spent up to now is      242.6 secs

     total energy              =    -772.77463926 Ry
     estimated scf accuracy    <       3.34127895 Ry

     total magnetization       =     0.86 Bohr mag/cell
     absolute magnetization    =     0.90 Bohr mag/cell

     iteration #  6     ecut=   120.00 Ry     beta= 0.40
     Davidson diagonalization with overlap
     ethr =  5.22E-03,  avg # of iterations =  2.8

     total cpu time spent up to now is      252.9 secs

     total energy              =    -773.42369093 Ry
     estimated scf accuracy    <       1.22028440 Ry

     total magnetization       =     0.43 Bohr mag/cell
     absolute magnetization    =     0.52 Bohr mag/cell

     iteration #  7     ecut=   120.00 Ry     beta= 0.40
     Davidson diagonalization with overlap
     ethr =  1.91E-03,  avg # of iterations =  4.4

     total cpu time spent up to now is      266.5 secs

     total energy              =    -774.42883006 Ry
     estimated scf accuracy    <       0.69306088 Ry

     total magnetization       =     0.21 Bohr mag/cell
     absolute magnetization    =     0.32 Bohr mag/cell

     iteration #  8     ecut=   120.00 Ry     beta= 0.40
     Davidson diagonalization with overlap
     ethr =  1.08E-03,  avg # of iterations =  2.3

     total cpu time spent up to now is      276.0 secs

     total energy              =    -774.56309722 Ry
     estimated scf accuracy    <       1.27004529 Ry

     total magnetization       =    -0.04 Bohr mag/cell
     absolute magnetization    =     0.15 Bohr mag/cell

     iteration #  9     ecut=   120.00 Ry     beta= 0.40
     Davidson diagonalization with overlap
     ethr =  1.08E-03,  avg # of iterations =  1.2

     total cpu time spent up to now is      283.3 secs

     total energy              =    -774.50124137 Ry
     estimated scf accuracy    <       1.31285503 Ry

     total magnetization       =     0.13 Bohr mag/cell
     absolute magnetization    =     0.18 Bohr mag/cell

     iteration # 10     ecut=   120.00 Ry     beta= 0.40
     Davidson diagonalization with overlap
     ethr =  1.08E-03,  avg # of iterations =  1.0

     total cpu time spent up to now is      290.3 secs

     total energy              =    -774.43234282 Ry
     estimated scf accuracy    <       1.00391458 Ry

     total magnetization       =     0.20 Bohr mag/cell
     absolute magnetization    =     0.23 Bohr mag/cell

     iteration # 11     ecut=   120.00 Ry     beta= 0.40
     Davidson diagonalization with overlap
     ethr =  1.08E-03,  avg # of iterations =  1.0

     total cpu time spent up to now is      297.2 secs

     total energy              =    -774.44351163 Ry
     estimated scf accuracy    <       0.64261336 Ry

     total magnetization       =     0.25 Bohr mag/cell
     absolute magnetization    =     0.28 Bohr mag/cell

     iteration # 12     ecut=   120.00 Ry     beta= 0.40
     Davidson diagonalization with overlap
     ethr =  1.00E-03,  avg # of iterations =  1.1

     total cpu time spent up to now is      304.2 secs

     total energy              =    -774.45937526 Ry
     estimated scf accuracy    <       0.70406450 Ry

     total magnetization       =     0.21 Bohr mag/cell
     absolute magnetization    =     0.26 Bohr mag/cell

     iteration # 13     ecut=   120.00 Ry     beta= 0.40
     Davidson diagonalization with overlap
     ethr =  1.00E-03,  avg # of iterations =  1.1

     total cpu time spent up to now is      311.4 secs

     total energy              =    -774.56213328 Ry
     estimated scf accuracy    <       0.79690961 Ry

     total magnetization       =     0.17 Bohr mag/cell
     absolute magnetization    =     0.25 Bohr mag/cell

     iteration # 14     ecut=   120.00 Ry     beta= 0.40
     Davidson diagonalization with overlap
     ethr =  1.00E-03,  avg # of iterations =  1.6

     total cpu time spent up to now is      319.5 secs

     total energy              =    -774.65399159 Ry
     estimated scf accuracy    <       1.54383906 Ry

     total magnetization       =     0.06 Bohr mag/cell
     absolute magnetization    =     0.14 Bohr mag/cell

     iteration # 15     ecut=   120.00 Ry     beta= 0.40
     Davidson diagonalization with overlap
     ethr =  1.00E-03,  avg # of iterations =  1.4

     total cpu time spent up to now is      327.1 secs

     total energy              =    -774.45407309 Ry
     estimated scf accuracy    <       1.91889048 Ry

     total magnetization       =     0.06 Bohr mag/cell
     absolute magnetization    =     0.17 Bohr mag/cell

     iteration # 16     ecut=   120.00 Ry     beta= 0.40
     Davidson diagonalization with overlap
     ethr =  1.00E-03,  avg # of iterations =  1.0

     total cpu time spent up to now is      334.0 secs

     total energy              =    -774.44892550 Ry
     estimated scf accuracy    <       0.86655787 Ry

     total magnetization       =     0.57 Bohr mag/cell
     absolute magnetization    =     0.61 Bohr mag/cell

     iteration # 17     ecut=   120.00 Ry     beta= 0.40
     Davidson diagonalization with overlap
     ethr =  1.00E-03,  avg # of iterations =  1.1

     total cpu time spent up to now is      341.2 secs

     total energy              =    -774.38195458 Ry
     estimated scf accuracy    <       0.70191498 Ry

     total magnetization       =     0.82 Bohr mag/cell
     absolute magnetization    =     0.86 Bohr mag/cell

     iteration # 18     ecut=   120.00 Ry     beta= 0.40
     Davidson diagonalization with overlap
     ethr =  1.00E-03,  avg # of iterations =  1.2

     total cpu time spent up to now is      348.4 secs

     total energy              =    -774.38526542 Ry
     estimated scf accuracy    <       0.08849131 Ry

     total magnetization       =     1.64 Bohr mag/cell
     absolute magnetization    =     1.67 Bohr mag/cell

     iteration # 19     ecut=   120.00 Ry     beta= 0.40
     Davidson diagonalization with overlap
     ethr =  1.38E-04,  avg # of iterations =  3.3

     total cpu time spent up to now is      358.4 secs

     total energy              =    -774.44177107 Ry
     estimated scf accuracy    <       0.36671298 Ry

     total magnetization       =     2.34 Bohr mag/cell
     absolute magnetization    =     2.35 Bohr mag/cell

     iteration # 20     ecut=   120.00 Ry     beta= 0.40
     Davidson diagonalization with overlap
     ethr =  1.38E-04,  avg # of iterations =  1.1

     total cpu time spent up to now is      365.3 secs

     total energy              =    -774.44736073 Ry
     estimated scf accuracy    <       0.44731336 Ry

     total magnetization       =     2.41 Bohr mag/cell
     absolute magnetization    =     2.43 Bohr mag/cell

     iteration # 21     ecut=   120.00 Ry     beta= 0.40
     Davidson diagonalization with overlap
     ethr =  1.38E-04,  avg # of iterations =  1.1

     total cpu time spent up to now is      372.4 secs

     total energy              =    -774.45131286 Ry
     estimated scf accuracy    <       0.83192458 Ry

     total magnetization       =     3.16 Bohr mag/cell
     absolute magnetization    =     3.17 Bohr mag/cell

     iteration # 22     ecut=   120.00 Ry     beta= 0.40
     Davidson diagonalization with overlap
     ethr =  1.38E-04,  avg # of iterations =  1.1

     total cpu time spent up to now is      379.5 secs

     total energy              =    -774.48319495 Ry
     estimated scf accuracy    <       1.80739719 Ry

     total magnetization       =     3.33 Bohr mag/cell
     absolute magnetization    =     3.34 Bohr mag/cell

     iteration # 23     ecut=   120.00 Ry     beta= 0.40
     Davidson diagonalization with overlap
     ethr =  1.38E-04,  avg # of iterations =  1.0

     total cpu time spent up to now is      386.6 secs

     total energy              =    -774.43914128 Ry
     estimated scf accuracy    <       1.83785611 Ry

     total magnetization       =     3.71 Bohr mag/cell
     absolute magnetization    =     3.73 Bohr mag/cell

     iteration # 24     ecut=   120.00 Ry     beta= 0.40
     Davidson diagonalization with overlap
     ethr =  1.38E-04,  avg # of iterations =  1.5

     total cpu time spent up to now is      394.4 secs

     total energy              =    -774.43588931 Ry
     estimated scf accuracy    <       0.54182807 Ry

     total magnetization       =     3.21 Bohr mag/cell
     absolute magnetization    =     3.25 Bohr mag/cell

     iteration # 25     ecut=   120.00 Ry     beta= 0.40
     Davidson diagonalization with overlap
     ethr =  1.38E-04,  avg # of iterations =  1.1

     total cpu time spent up to now is      401.9 secs

     total energy              =    -774.44315214 Ry
     estimated scf accuracy    <       0.11714912 Ry

     total magnetization       =     2.83 Bohr mag/cell
     absolute magnetization    =     2.88 Bohr mag/cell

     iteration # 26     ecut=   120.00 Ry     beta= 0.40
     Davidson diagonalization with overlap
     ethr =  1.38E-04,  avg # of iterations =  1.1

     total cpu time spent up to now is      409.0 secs

     total energy              =    -774.44369014 Ry
     estimated scf accuracy    <       0.25509116 Ry

     total magnetization       =     3.57 Bohr mag/cell
     absolute magnetization    =     3.64 Bohr mag/cell

     iteration # 27     ecut=   120.00 Ry     beta= 0.40
     Davidson diagonalization with overlap
     ethr =  1.38E-04,  avg # of iterations =  1.1

     total cpu time spent up to now is      416.1 secs

     total energy              =    -774.44600960 Ry
     estimated scf accuracy    <       0.06832424 Ry

     total magnetization       =     3.34 Bohr mag/cell
     absolute magnetization    =     3.44 Bohr mag/cell

     iteration # 28     ecut=   120.00 Ry     beta= 0.40
     Davidson diagonalization with overlap
     ethr =  1.07E-04,  avg # of iterations =  1.0

     total cpu time spent up to now is      423.0 secs

     total energy              =    -774.44692806 Ry
     estimated scf accuracy    <       0.02867763 Ry

     total magnetization       =     3.47 Bohr mag/cell
     absolute magnetization    =     3.58 Bohr mag/cell

     iteration # 29     ecut=   120.00 Ry     beta= 0.40
     Davidson diagonalization with overlap
     ethr =  4.48E-05,  avg # of iterations =  1.6

     total cpu time spent up to now is      430.9 secs

     total energy              =    -774.45708478 Ry
     estimated scf accuracy    <       0.01764583 Ry

     total magnetization       =     3.32 Bohr mag/cell
     absolute magnetization    =     3.45 Bohr mag/cell

     iteration # 30     ecut=   120.00 Ry     beta= 0.40
     Davidson diagonalization with overlap
     ethr =  2.76E-05,  avg # of iterations =  1.1

     total cpu time spent up to now is      438.0 secs

     total energy              =    -774.45905306 Ry
     estimated scf accuracy    <       0.00629233 Ry

     total magnetization       =     3.41 Bohr mag/cell
     absolute magnetization    =     3.53 Bohr mag/cell

     iteration # 31     ecut=   120.00 Ry     beta= 0.40
     Davidson diagonalization with overlap
     ethr =  9.83E-06,  avg # of iterations =  1.5

     total cpu time spent up to now is      445.6 secs

     total energy              =    -774.46579027 Ry
     estimated scf accuracy    <       0.00874752 Ry

     total magnetization       =     3.63 Bohr mag/cell
     absolute magnetization    =     3.75 Bohr mag/cell

     iteration # 32     ecut=   120.00 Ry     beta= 0.40
     Davidson diagonalization with overlap
     ethr =  9.83E-06,  avg # of iterations =  1.0

     total cpu time spent up to now is      452.5 secs

     total energy              =    -774.46518068 Ry
     estimated scf accuracy    <       0.05532453 Ry

     total magnetization       =     3.53 Bohr mag/cell
     absolute magnetization    =     3.65 Bohr mag/cell

     iteration # 33     ecut=   120.00 Ry     beta= 0.40
     Davidson diagonalization with overlap
     ethr =  9.83E-06,  avg # of iterations =  1.0

     total cpu time spent up to now is      459.4 secs

     total energy              =    -774.46439782 Ry
     estimated scf accuracy    <       0.02386513 Ry

     total magnetization       =     3.48 Bohr mag/cell
     absolute magnetization    =     3.59 Bohr mag/cell

     iteration # 34     ecut=   120.00 Ry     beta= 0.40
     Davidson diagonalization with overlap
     ethr =  9.83E-06,  avg # of iterations =  1.0

     total cpu time spent up to now is      466.3 secs

     total energy              =    -774.46478235 Ry
     estimated scf accuracy    <       0.01635867 Ry

     total magnetization       =     3.61 Bohr mag/cell
     absolute magnetization    =     3.72 Bohr mag/cell

     iteration # 35     ecut=   120.00 Ry     beta= 0.40
     Davidson diagonalization with overlap
     ethr =  9.83E-06,  avg # of iterations =  1.0

     total cpu time spent up to now is      473.3 secs

     total energy              =    -774.46442140 Ry
     estimated scf accuracy    <       0.01599236 Ry

     total magnetization       =     3.61 Bohr mag/cell
     absolute magnetization    =     3.71 Bohr mag/cell

     iteration # 36     ecut=   120.00 Ry     beta= 0.40
     Davidson diagonalization with overlap
     ethr =  9.83E-06,  avg # of iterations =  1.0

     total cpu time spent up to now is      480.2 secs

     total energy              =    -774.46447072 Ry
     estimated scf accuracy    <       0.01135484 Ry

     total magnetization       =     3.61 Bohr mag/cell
     absolute magnetization    =     3.71 Bohr mag/cell

     iteration # 37     ecut=   120.00 Ry     beta= 0.40
     Davidson diagonalization with overlap
     ethr =  9.83E-06,  avg # of iterations =  1.0

     total cpu time spent up to now is      487.1 secs

     total energy              =    -774.46526743 Ry
     estimated scf accuracy    <       0.01368368 Ry

     total magnetization       =     3.57 Bohr mag/cell
     absolute magnetization    =     3.67 Bohr mag/cell

     iteration # 38     ecut=   120.00 Ry     beta= 0.40
     Davidson diagonalization with overlap
     ethr =  9.83E-06,  avg # of iterations =  1.5

     total cpu time spent up to now is      494.8 secs

     total energy              =    -774.46594251 Ry
     estimated scf accuracy    <       0.01865354 Ry

     total magnetization       =     3.62 Bohr mag/cell
     absolute magnetization    =     3.73 Bohr mag/cell

     iteration # 39     ecut=   120.00 Ry     beta= 0.40
     Davidson diagonalization with overlap
     ethr =  9.83E-06,  avg # of iterations =  1.1

     total cpu time spent up to now is      501.8 secs

     total energy              =    -774.46640338 Ry
     estimated scf accuracy    <       0.00252832 Ry

     total magnetization       =     3.61 Bohr mag/cell
     absolute magnetization    =     3.72 Bohr mag/cell

     iteration # 40     ecut=   120.00 Ry     beta= 0.40
     Davidson diagonalization with overlap
     ethr =  3.95E-06,  avg # of iterations =  1.3

     total cpu time spent up to now is      509.1 secs

     total energy              =    -774.46645133 Ry
     estimated scf accuracy    <       0.00448111 Ry

     total magnetization       =     3.62 Bohr mag/cell
     absolute magnetization    =     3.72 Bohr mag/cell

     iteration # 41     ecut=   120.00 Ry     beta= 0.40
     Davidson diagonalization with overlap
     ethr =  3.95E-06,  avg # of iterations =  1.0

     total cpu time spent up to now is      516.0 secs

     total energy              =    -774.46657596 Ry
     estimated scf accuracy    <       0.00059661 Ry

     total magnetization       =     3.62 Bohr mag/cell
     absolute magnetization    =     3.72 Bohr mag/cell

     iteration # 42     ecut=   120.00 Ry     beta= 0.40
     Davidson diagonalization with overlap
     ethr =  9.32E-07,  avg # of iterations =  1.3

     total cpu time spent up to now is      523.4 secs

     total energy              =    -774.46659683 Ry
     estimated scf accuracy    <       0.00048556 Ry

     total magnetization       =     3.62 Bohr mag/cell
     absolute magnetization    =     3.73 Bohr mag/cell

     iteration # 43     ecut=   120.00 Ry     beta= 0.40
     Davidson diagonalization with overlap
     ethr =  7.59E-07,  avg # of iterations =  1.0

     total cpu time spent up to now is      530.3 secs

     total energy              =    -774.46661719 Ry
     estimated scf accuracy    <       0.00013102 Ry

     total magnetization       =     3.62 Bohr mag/cell
     absolute magnetization    =     3.73 Bohr mag/cell

     iteration # 44     ecut=   120.00 Ry     beta= 0.40
     Davidson diagonalization with overlap
     ethr =  2.05E-07,  avg # of iterations =  1.0

     total cpu time spent up to now is      537.2 secs

     total energy              =    -774.46662255 Ry
     estimated scf accuracy    <       0.00001154 Ry

     total magnetization       =     3.62 Bohr mag/cell
     absolute magnetization    =     3.73 Bohr mag/cell

     iteration # 45     ecut=   120.00 Ry     beta= 0.40
     Davidson diagonalization with overlap
     ethr =  1.80E-08,  avg # of iterations =  1.2

     total cpu time spent up to now is      544.4 secs

     total energy              =    -774.46662515 Ry
     estimated scf accuracy    <       0.00002561 Ry

     total magnetization       =     3.61 Bohr mag/cell
     absolute magnetization    =     3.73 Bohr mag/cell

     iteration # 46     ecut=   120.00 Ry     beta= 0.40
     Davidson diagonalization with overlap
     ethr =  1.80E-08,  avg # of iterations =  1.0

     total cpu time spent up to now is      551.3 secs

     total energy              =    -774.46662628 Ry
     estimated scf accuracy    <       0.00000510 Ry

     total magnetization       =     3.61 Bohr mag/cell
     absolute magnetization    =     3.73 Bohr mag/cell

     iteration # 47     ecut=   120.00 Ry     beta= 0.40
     Davidson diagonalization with overlap
     ethr =  7.97E-09,  avg # of iterations =  1.5

     total cpu time spent up to now is      559.1 secs

     total energy              =    -774.46662729 Ry
     estimated scf accuracy    <       0.00000194 Ry

     total magnetization       =     3.61 Bohr mag/cell
     absolute magnetization    =     3.73 Bohr mag/cell

     iteration # 48     ecut=   120.00 Ry     beta= 0.40
     Davidson diagonalization with overlap
     ethr =  3.03E-09,  avg # of iterations =  2.0
 
     Magnetic moment per site  (integrated on atomic sphere of radius R)
     atom   1 (R=0.178)  charge= 16.8014  magn=  1.2485
     atom   2 (R=0.178)  charge= 16.8020  magn=  1.2481
     atom   3 (R=0.178)  charge=  4.5274  magn=  0.2015
     atom   4 (R=0.178)  charge=  4.5273  magn=  0.2014
     atom   5 (R=0.178)  charge=  4.5278  magn=  0.2015
     atom   6 (R=0.178)  charge=  4.5277  magn=  0.2015

     total cpu time spent up to now is      567.6 secs

     End of self-consistent calculation

     Number of k-points >= 100: set verbosity='high' to print the bands.

     the Fermi energy is     2.5106 ev

!    total energy              =    -774.46662794 Ry
     estimated scf accuracy    <       0.00000038 Ry
     smearing contrib. (-TS)   =      -0.00005478 Ry
     internal energy E=F+TS    =    -774.46657316 Ry

     The total energy is F=E-TS. E is the sum of the following terms:
     one-electron contribution =    -900.63846511 Ry
     hartree contribution      =     463.95456376 Ry
     xc contribution           =    -117.03980115 Ry
     ewald contribution        =    -220.66769647 Ry
     DFT-D3 Dispersion         =      -0.07517419 Ry

     total magnetization       =     3.61 Bohr mag/cell
     absolute magnetization    =     3.73 Bohr mag/cell

     convergence has been achieved in  48 iterations

     Forces acting on atoms (cartesian axes, Ry/au):

     atom    1 type  1   force =     0.00000358    0.00000000    0.00000269
     atom    2 type  1   force =    -0.00000321    0.00000000    0.00000375
     atom    3 type  2   force =     0.00794529    0.00000000   -0.06418562
     atom    4 type  2   force =     0.00794714    0.00000000   -0.06419794
     atom    5 type  2   force =    -0.00794515    0.00000000    0.06418188
     atom    6 type  2   force =    -0.00794764    0.00000000    0.06419523

     Total force =     0.129360     Total SCF correction =     0.000613


     Computing stress (Cartesian axis) and pressure

          total   stress  (Ry/bohr**3)                   (kbar)     P=      -46.13
  -0.00016104   0.00000000   0.00008099          -23.69        0.00       11.91
   0.00000000  -0.00008696   0.00000000            0.00      -12.79        0.00
   0.00008099   0.00000000  -0.00069278           11.91        0.00     -101.91

     Energy error            =      4.0E-02 Ry
     Gradient error          =      6.4E-02 Ry/Bohr
     Cell gradient error     =      1.0E+02 kbar

     number of scf cycles    =   2
     number of bfgs steps    =   1

     enthalpy           old  =    -774.4262034678 Ry
     enthalpy           new  =    -774.4666279427 Ry

     CASE: enthalpy          _new < enthalpy          _old


     WARNING: bfgs curvature condition failed, Theta= 0.820
     new trust radius        =       0.2215076558 bohr
ibrav =    -12
 celldm(1) =     12.64619024
 celldm(2) =      0.58269377
 celldm(3) =      1.40238202
 celldm(5) =      0.00710798
Input lattice vectors:
     0.98922035     0.00000000    -0.00003815
     0.00000000     0.57641254     0.00000000
     0.00991415     0.00000000     1.38722941
New lattice vectors in INITIAL alat:
     0.98922035     0.00000000     0.00000000
     0.00000000     0.57641254     0.00000000
     0.00986065     0.00000000     1.38722979
New lattice vectors in NEW alat (for information only):
     1.00000000     0.00000000     0.00000000
     0.00000000     0.58269377     0.00000000
     0.00996810     0.00000000     1.40234660
Discrepancy in bohr =     0.000038    0.000000    0.000053
     new conv_thr            =       0.0000006420 Ry

     new unit-cell volume =   1652.62711 a.u.^3 (   244.89407 Ang^3 )
     density =      4.23793 g/cm^3

CELL_PARAMETERS (alat= 12.78399723)
   0.989220351   0.000000000   0.000000000
   0.000000000   0.576412537   0.000000000
   0.009860650   0.000000000   1.387229793

ATOMIC_POSITIONS (crystal)
Ni            0.4999990101        0.0000000000        0.2419998534
Ni            0.0000007517        0.5000000000        0.2419997106
I             0.2352123610        0.0000000000        0.4753177800
I             0.7352128098        0.5000000000        0.4753183672
I             0.7647878698        0.0000000000        0.0086820226
I             0.2647871977        0.5000000000        0.0086822662



     Writing output data file ./tmp/monoclinic.save/
     NEW-OLD atomic charge density approx. for the potential
     extrapolated charge   61.58939, renormalised to   64.00000
     Generating pointlists ...
     new r_m :   0.1712 (alat units)  2.1881 (a.u.) for type    1
     new r_m :   0.1712 (alat units)  2.1881 (a.u.) for type    2

     total cpu time spent up to now is      584.5 secs

     Self-consistent Calculation

     iteration #  1     ecut=   120.00 Ry     beta= 0.40
     Davidson diagonalization with overlap
     c_bands:  1 eigenvalues not converged
     c_bands:  1 eigenvalues not converged
     c_bands:  1 eigenvalues not converged
     c_bands:  2 eigenvalues not converged
     ethr =  1.00E-06,  avg # of iterations = 13.5

     total cpu time spent up to now is      615.6 secs

     total energy              =    -764.18780919 Ry
     estimated scf accuracy    <      14.17366591 Ry

     total magnetization       =     0.48 Bohr mag/cell
     absolute magnetization    =     0.63 Bohr mag/cell

     iteration #  2     ecut=   120.00 Ry     beta= 0.40
     Davidson diagonalization with overlap
     ethr =  1.00E-02,  avg # of iterations =  6.6

     total cpu time spent up to now is      632.2 secs

     total energy              =    -769.10231244 Ry
     estimated scf accuracy    <     224.47258488 Ry

     total magnetization       =     0.17 Bohr mag/cell
     absolute magnetization    =     0.23 Bohr mag/cell

     iteration #  3     ecut=   120.00 Ry     beta= 0.40
     Davidson diagonalization with overlap
     ethr =  1.00E-02,  avg # of iterations =  8.3

     total cpu time spent up to now is      648.4 secs

     total energy              =    -771.82442755 Ry
     estimated scf accuracy    <      64.04902497 Ry

     total magnetization       =     0.67 Bohr mag/cell
     absolute magnetization    =     0.71 Bohr mag/cell

     iteration #  4     ecut=   120.00 Ry     beta= 0.40
     Davidson diagonalization with overlap
     ethr =  1.00E-02,  avg # of iterations =  3.5

     total cpu time spent up to now is      658.4 secs

     total energy              =    -767.08206322 Ry
     estimated scf accuracy    <      45.72701096 Ry

     total magnetization       =     1.18 Bohr mag/cell
     absolute magnetization    =     1.27 Bohr mag/cell

     iteration #  5     ecut=   120.00 Ry     beta= 0.40
     Davidson diagonalization with overlap
     ethr =  1.00E-02,  avg # of iterations =  7.9

     total cpu time spent up to now is      675.7 secs

     total energy              =    -773.74253648 Ry
     estimated scf accuracy    <       0.88658987 Ry

     total magnetization       =    -0.37 Bohr mag/cell
     absolute magnetization    =     0.55 Bohr mag/cell

     iteration #  6     ecut=   120.00 Ry     beta= 0.40
     Davidson diagonalization with overlap
     ethr =  1.39E-03,  avg # of iterations =  4.9

     total cpu time spent up to now is      690.1 secs

     total energy              =    -775.15396751 Ry
     estimated scf accuracy    <       2.70805833 Ry

     total magnetization       =    -0.09 Bohr mag/cell
     absolute magnetization    =     0.53 Bohr mag/cell

     iteration #  7     ecut=   120.00 Ry     beta= 0.40
     Davidson diagonalization with overlap
     ethr =  1.39E-03,  avg # of iterations =  1.7

     total cpu time spent up to now is      698.3 secs

     total energy              =    -775.21073299 Ry
     estimated scf accuracy    <       3.73108439 Ry

     total magnetization       =     0.13 Bohr mag/cell
     absolute magnetization    =     0.58 Bohr mag/cell

     iteration #  8     ecut=   120.00 Ry     beta= 0.40
     Davidson diagonalization with overlap
     ethr =  1.39E-03,  avg # of iterations =  1.2

     total cpu time spent up to now is      705.7 secs

     total energy              =    -775.14235478 Ry
     estimated scf accuracy    <       3.86948777 Ry

     total magnetization       =     0.23 Bohr mag/cell
     absolute magnetization    =     0.57 Bohr mag/cell

     iteration #  9     ecut=   120.00 Ry     beta= 0.40
     Davidson diagonalization with overlap
     ethr =  1.39E-03,  avg # of iterations =  1.0

     total cpu time spent up to now is      712.6 secs

     total energy              =    -774.96523957 Ry
     estimated scf accuracy    <       3.56204865 Ry

     total magnetization       =     0.27 Bohr mag/cell
     absolute magnetization    =     0.59 Bohr mag/cell

     iteration # 10     ecut=   120.00 Ry     beta= 0.40
     Davidson diagonalization with overlap
     ethr =  1.39E-03,  avg # of iterations =  1.1

     total cpu time spent up to now is      719.7 secs

     total energy              =    -774.72677002 Ry
     estimated scf accuracy    <       3.03875107 Ry

     total magnetization       =     0.38 Bohr mag/cell
     absolute magnetization    =     0.59 Bohr mag/cell

     iteration # 11     ecut=   120.00 Ry     beta= 0.40
     Davidson diagonalization with overlap
     ethr =  1.39E-03,  avg # of iterations =  1.0

     total cpu time spent up to now is      726.7 secs

     total energy              =    -774.77410704 Ry
     estimated scf accuracy    <       2.04384055 Ry

     total magnetization       =     0.45 Bohr mag/cell
     absolute magnetization    =     0.63 Bohr mag/cell

     iteration # 12     ecut=   120.00 Ry     beta= 0.40
     Davidson diagonalization with overlap
     ethr =  1.39E-03,  avg # of iterations =  1.0

     total cpu time spent up to now is      733.6 secs

     total energy              =    -774.65147194 Ry
     estimated scf accuracy    <       2.16714861 Ry

     total magnetization       =     0.45 Bohr mag/cell
     absolute magnetization    =     0.64 Bohr mag/cell

     iteration # 13     ecut=   120.00 Ry     beta= 0.40
     Davidson diagonalization with overlap
     ethr =  1.39E-03,  avg # of iterations =  1.0

     total cpu time spent up to now is      740.5 secs

     total energy              =    -773.99996503 Ry
     estimated scf accuracy    <       1.60083575 Ry

     total magnetization       =     0.48 Bohr mag/cell
     absolute magnetization    =     0.65 Bohr mag/cell

     iteration # 14     ecut=   120.00 Ry     beta= 0.40
     Davidson diagonalization with overlap
     ethr =  1.39E-03,  avg # of iterations =  2.1

     total cpu time spent up to now is      749.4 secs

     total energy              =    -774.43729440 Ry
     estimated scf accuracy    <       3.16458571 Ry

     total magnetization       =     2.96 Bohr mag/cell
     absolute magnetization    =     3.03 Bohr mag/cell

     iteration # 15     ecut=   120.00 Ry     beta= 0.40
     Davidson diagonalization with overlap
     ethr =  1.39E-03,  avg # of iterations =  1.6

     total cpu time spent up to now is      756.9 secs

     total energy              =    -774.50769226 Ry
     estimated scf accuracy    <       1.34000671 Ry

     total magnetization       =     2.96 Bohr mag/cell
     absolute magnetization    =     2.99 Bohr mag/cell

     iteration # 16     ecut=   120.00 Ry     beta= 0.40
     Davidson diagonalization with overlap
     ethr =  1.39E-03,  avg # of iterations =  1.0

     total cpu time spent up to now is      763.9 secs

     total energy              =    -774.51920780 Ry
     estimated scf accuracy    <       1.00062872 Ry

     total magnetization       =     2.94 Bohr mag/cell
     absolute magnetization    =     2.97 Bohr mag/cell

     iteration # 17     ecut=   120.00 Ry     beta= 0.40
     Davidson diagonalization with overlap
     ethr =  1.39E-03,  avg # of iterations =  1.0

     total cpu time spent up to now is      770.8 secs

     total energy              =    -774.49828621 Ry
     estimated scf accuracy    <       1.20821997 Ry

     total magnetization       =     2.95 Bohr mag/cell
     absolute magnetization    =     2.97 Bohr mag/cell

     iteration # 18     ecut=   120.00 Ry     beta= 0.40
     Davidson diagonalization with overlap
     ethr =  1.39E-03,  avg # of iterations =  1.0

     total cpu time spent up to now is      777.8 secs

     total energy              =    -774.46494273 Ry
     estimated scf accuracy    <       0.94173426 Ry

     total magnetization       =     2.75 Bohr mag/cell
     absolute magnetization    =     2.78 Bohr mag/cell

     iteration # 19     ecut=   120.00 Ry     beta= 0.40
     Davidson diagonalization with overlap
     ethr =  1.39E-03,  avg # of iterations =  1.0

     total cpu time spent up to now is      784.6 secs

     total energy              =    -774.44005765 Ry
     estimated scf accuracy    <       0.39346230 Ry

     total magnetization       =     2.38 Bohr mag/cell
     absolute magnetization    =     2.42 Bohr mag/cell

     iteration # 20     ecut=   120.00 Ry     beta= 0.40
     Davidson diagonalization with overlap
     ethr =  6.15E-04,  avg # of iterations =  1.3

     total cpu time spent up to now is      792.1 secs

     total energy              =    -774.44953453 Ry
     estimated scf accuracy    <       0.09554857 Ry

     total magnetization       =     2.01 Bohr mag/cell
     absolute magnetization    =     2.06 Bohr mag/cell

     iteration # 21     ecut=   120.00 Ry     beta= 0.40
     Davidson diagonalization with overlap
     ethr =  1.49E-04,  avg # of iterations =  2.5

     total cpu time spent up to now is      801.2 secs

     total energy              =    -774.46304389 Ry
     estimated scf accuracy    <       0.20505365 Ry

     total magnetization       =     1.74 Bohr mag/cell
     absolute magnetization    =     1.79 Bohr mag/cell

     iteration # 22     ecut=   120.00 Ry     beta= 0.40
     Davidson diagonalization with overlap
     ethr =  1.49E-04,  avg # of iterations =  1.0

     total cpu time spent up to now is      808.2 secs

     total energy              =    -774.48404878 Ry
     estimated scf accuracy    <       0.12070035 Ry

     total magnetization       =     3.03 Bohr mag/cell
     absolute magnetization    =     3.06 Bohr mag/cell

     iteration # 23     ecut=   120.00 Ry     beta= 0.40
     Davidson diagonalization with overlap
     ethr =  1.49E-04,  avg # of iterations =  1.1

     total cpu time spent up to now is      815.3 secs

     total energy              =    -774.49817731 Ry
     estimated scf accuracy    <       0.02519584 Ry

     total magnetization       =     2.78 Bohr mag/cell
     absolute magnetization    =     2.82 Bohr mag/cell

     iteration # 24     ecut=   120.00 Ry     beta= 0.40
     Davidson diagonalization with overlap
     ethr =  3.94E-05,  avg # of iterations =  3.1

     total cpu time spent up to now is      825.8 secs

     total energy              =    -774.53400044 Ry
     estimated scf accuracy    <       0.34930391 Ry

     total magnetization       =     2.62 Bohr mag/cell
     absolute magnetization    =     2.71 Bohr mag/cell

     iteration # 25     ecut=   120.00 Ry     beta= 0.40
     Davidson diagonalization with overlap
     ethr =  3.94E-05,  avg # of iterations =  1.0

     total cpu time spent up to now is      832.7 secs

     total energy              =    -774.53200013 Ry
     estimated scf accuracy    <       0.30290192 Ry

     total magnetization       =     2.90 Bohr mag/cell
     absolute magnetization    =     3.01 Bohr mag/cell

     iteration # 26     ecut=   120.00 Ry     beta= 0.40
     Davidson diagonalization with overlap
     ethr =  3.94E-05,  avg # of iterations =  1.0

     total cpu time spent up to now is      839.6 secs

     total energy              =    -774.51823417 Ry
     estimated scf accuracy    <       0.25328030 Ry

     total magnetization       =     3.00 Bohr mag/cell
     absolute magnetization    =     3.11 Bohr mag/cell

     iteration # 27     ecut=   120.00 Ry     beta= 0.40
     Davidson diagonalization with overlap
     ethr =  3.94E-05,  avg # of iterations =  1.0

     total cpu time spent up to now is      846.6 secs

     total energy              =    -774.51547742 Ry
     estimated scf accuracy    <       0.04122463 Ry

     total magnetization       =     3.29 Bohr mag/cell
     absolute magnetization    =     3.40 Bohr mag/cell

     iteration # 28     ecut=   120.00 Ry     beta= 0.40
     Davidson diagonalization with overlap
     ethr =  3.94E-05,  avg # of iterations =  2.0

     total cpu time spent up to now is      854.4 secs

     total energy              =    -774.52014312 Ry
     estimated scf accuracy    <       0.20715821 Ry

     total magnetization       =     3.41 Bohr mag/cell
     absolute magnetization    =     3.51 Bohr mag/cell

     iteration # 29     ecut=   120.00 Ry     beta= 0.40
     Davidson diagonalization with overlap
     ethr =  3.94E-05,  avg # of iterations =  1.2

     total cpu time spent up to now is      861.6 secs

     total energy              =    -774.52459889 Ry
     estimated scf accuracy    <       0.03335482 Ry

     total magnetization       =     3.81 Bohr mag/cell
     absolute magnetization    =     3.91 Bohr mag/cell

     iteration # 30     ecut=   120.00 Ry     beta= 0.40
     Davidson diagonalization with overlap
     ethr =  3.94E-05,  avg # of iterations =  1.0

     total cpu time spent up to now is      868.5 secs

     total energy              =    -774.52443014 Ry
     estimated scf accuracy    <       0.02957385 Ry

     total magnetization       =     3.90 Bohr mag/cell
     absolute magnetization    =     4.00 Bohr mag/cell

     iteration # 31     ecut=   120.00 Ry     beta= 0.40
     Davidson diagonalization with overlap
     ethr =  3.94E-05,  avg # of iterations =  1.0

     total cpu time spent up to now is      875.6 secs

     total energy              =    -774.52400066 Ry
     estimated scf accuracy    <       0.02601226 Ry

     total magnetization       =     3.76 Bohr mag/cell
     absolute magnetization    =     3.87 Bohr mag/cell

     iteration # 32     ecut=   120.00 Ry     beta= 0.40
     Davidson diagonalization with overlap
     ethr =  3.94E-05,  avg # of iterations =  1.0

     total cpu time spent up to now is      882.8 secs

     total energy              =    -774.52429034 Ry
     estimated scf accuracy    <       0.00367869 Ry

     total magnetization       =     3.74 Bohr mag/cell
     absolute magnetization    =     3.85 Bohr mag/cell

     iteration # 33     ecut=   120.00 Ry     beta= 0.40
     Davidson diagonalization with overlap
     ethr =  5.75E-06,  avg # of iterations =  1.0

     total cpu time spent up to now is      889.8 secs

     total energy              =    -774.52442351 Ry
     estimated scf accuracy    <       0.00031551 Ry

     total magnetization       =     3.74 Bohr mag/cell
     absolute magnetization    =     3.86 Bohr mag/cell

     iteration # 34     ecut=   120.00 Ry     beta= 0.40
     Davidson diagonalization with overlap
     ethr =  4.93E-07,  avg # of iterations =  1.8

     total cpu time spent up to now is      897.7 secs

     total energy              =    -774.52445036 Ry
     estimated scf accuracy    <       0.00008552 Ry

     total magnetization       =     3.74 Bohr mag/cell
     absolute magnetization    =     3.85 Bohr mag/cell

     iteration # 35     ecut=   120.00 Ry     beta= 0.40
     Davidson diagonalization with overlap
     ethr =  1.34E-07,  avg # of iterations =  1.8

     total cpu time spent up to now is      905.4 secs

     total energy              =    -774.52445826 Ry
     estimated scf accuracy    <       0.00003010 Ry

     total magnetization       =     3.74 Bohr mag/cell
     absolute magnetization    =     3.85 Bohr mag/cell

     iteration # 36     ecut=   120.00 Ry     beta= 0.40
     Davidson diagonalization with overlap
     ethr =  4.70E-08,  avg # of iterations =  2.0

     total cpu time spent up to now is      914.1 secs

     total energy              =    -774.52446204 Ry
     estimated scf accuracy    <       0.00006382 Ry

     total magnetization       =     3.73 Bohr mag/cell
     absolute magnetization    =     3.84 Bohr mag/cell

     iteration # 37     ecut=   120.00 Ry     beta= 0.40
     Davidson diagonalization with overlap
     ethr =  4.70E-08,  avg # of iterations =  1.0

     total cpu time spent up to now is      921.0 secs

     total energy              =    -774.52446371 Ry
     estimated scf accuracy    <       0.00000257 Ry

     total magnetization       =     3.73 Bohr mag/cell
     absolute magnetization    =     3.84 Bohr mag/cell

     iteration # 38     ecut=   120.00 Ry     beta= 0.40
     Davidson diagonalization with overlap
     ethr =  4.01E-09,  avg # of iterations =  1.1

     total cpu time spent up to now is      928.2 secs

     total energy              =    -774.52446394 Ry
     estimated scf accuracy    <       0.00000296 Ry

     total magnetization       =     3.73 Bohr mag/cell
     absolute magnetization    =     3.84 Bohr mag/cell

     iteration # 39     ecut=   120.00 Ry     beta= 0.40
     Davidson diagonalization with overlap
     ethr =  4.01E-09,  avg # of iterations =  1.0
 
     Magnetic moment per site  (integrated on atomic sphere of radius R)
     atom   1 (R=0.171)  charge= 16.7249  magn=  1.2654
     atom   2 (R=0.171)  charge= 16.7258  magn=  1.2645
     atom   3 (R=0.171)  charge=  4.2615  magn=  0.2015
     atom   4 (R=0.171)  charge=  4.2613  magn=  0.2016
     atom   5 (R=0.171)  charge=  4.2613  magn=  0.2017
     atom   6 (R=0.171)  charge=  4.2614  magn=  0.2016

     total cpu time spent up to now is      935.1 secs

     End of self-consistent calculation

     Number of k-points >= 100: set verbosity='high' to print the bands.

     the Fermi energy is     2.8493 ev

!    total energy              =    -774.52446380 Ry
     estimated scf accuracy    <       0.00000048 Ry
     smearing contrib. (-TS)   =      -0.00006125 Ry
     internal energy E=F+TS    =    -774.52440255 Ry

     The total energy is F=E-TS. E is the sum of the following terms:
     one-electron contribution =    -900.33915755 Ry
     hartree contribution      =     464.42043956 Ry
     xc contribution           =    -117.11434874 Ry
     ewald contribution        =    -221.41406277 Ry
     DFT-D3 Dispersion         =      -0.07727305 Ry

     total magnetization       =     3.73 Bohr mag/cell
     absolute magnetization    =     3.84 Bohr mag/cell

     convergence has been achieved in  39 iterations

     Forces acting on atoms (cartesian axes, Ry/au):

     atom    1 type  1   force =     0.00001310    0.00000000   -0.00000677
     atom    2 type  1   force =    -0.00002240    0.00000000   -0.00000747
     atom    3 type  2   force =     0.00550972    0.00000000   -0.06173675
     atom    4 type  2   force =     0.00549839    0.00000000   -0.06175888
     atom    5 type  2   force =    -0.00550421    0.00000000    0.06175209
     atom    6 type  2   force =    -0.00549460    0.00000000    0.06175778

     Total force =     0.123992     Total SCF correction =     0.000612


     Computing stress (Cartesian axis) and pressure

          total   stress  (Ry/bohr**3)                   (kbar)     P=      -42.03
  -0.00013066   0.00000000   0.00005530          -19.22        0.00        8.13
   0.00000000  -0.00006394   0.00000000            0.00       -9.41        0.00
   0.00005530   0.00000000  -0.00066263            8.13        0.00      -97.48

     Energy error            =      5.8E-02 Ry
     Gradient error          =      6.2E-02 Ry/Bohr
     Cell gradient error     =      9.7E+01 kbar

     number of scf cycles    =   3
     number of bfgs steps    =   2

     enthalpy           old  =    -774.4666279427 Ry
     enthalpy           new  =    -774.5244638028 Ry

     CASE: enthalpy          _new < enthalpy          _old

     new trust radius        =       0.3351350203 bohr
ibrav =    -12
 celldm(1) =     12.53617363
 celldm(2) =      0.58524223
 celldm(3) =      1.35653792
 celldm(5) =      0.01627329
Input lattice vectors:
     0.98061432     0.00000000    -0.00065898
     0.00000000     0.57389704     0.00000000
     0.02254120     0.00000000     1.33004982
New lattice vectors in INITIAL alat:
     0.98061454     0.00000000     0.00000000
     0.00000000     0.57389704     0.00000000
     0.02164740     0.00000000     1.33006467
New lattice vectors in NEW alat (for information only):
     1.00000000     0.00000000     0.00000000
     0.00000000     0.58524223     0.00000000
     0.02207534     0.00000000     1.35635829
Discrepancy in bohr =     0.000659    0.000000    0.000894
     new conv_thr            =       0.0000006176 Ry

     new unit-cell volume =   1563.88595 a.u.^3 (   231.74399 Ang^3 )
     density =      4.47841 g/cm^3

CELL_PARAMETERS (alat= 12.78399723)
   0.980614545   0.000000000   0.000000000
   0.000000000   0.573897042   0.000000000
   0.021647400   0.000000000   1.330064666

ATOMIC_POSITIONS (crystal)
Ni            0.4999995686        0.0000000000        0.2419990626
Ni           -0.0000011435        0.5000000000        0.2419986695
I             0.2364001200        0.0000000000        0.4675694982
I             0.7363993727        0.5000000000        0.4675694109
I             0.7636009420        0.0000000000        0.0164316066
I             0.2636011402        0.5000000000        0.0164317523



     Writing output data file ./tmp/monoclinic.save/
     NEW-OLD atomic charge density approx. for the potential
     extrapolated charge   60.36843, renormalised to   64.00000
     Generating pointlists ...
     new r_m :   0.1620 (alat units)  2.0716 (a.u.) for type    1
     new r_m :   0.1620 (alat units)  2.0716 (a.u.) for type    2

     total cpu time spent up to now is      952.0 secs

     Self-consistent Calculation

     iteration #  1     ecut=   120.00 Ry     beta= 0.40
     Davidson diagonalization with overlap
     c_bands:  1 eigenvalues not converged
     c_bands:  1 eigenvalues not converged
     c_bands:  1 eigenvalues not converged
     c_bands:  2 eigenvalues not converged
     ethr =  1.00E-06,  avg # of iterations = 15.9

     total cpu time spent up to now is      987.0 secs

     total energy              =    -757.78256172 Ry
     estimated scf accuracy    <      21.80685802 Ry

     total magnetization       =     0.68 Bohr mag/cell
     absolute magnetization    =     0.76 Bohr mag/cell

     iteration #  2     ecut=   120.00 Ry     beta= 0.40
     Davidson diagonalization with overlap
     ethr =  1.00E-02,  avg # of iterations =  6.7

     total cpu time spent up to now is     1004.2 secs

     total energy              =    -770.83573076 Ry
     estimated scf accuracy    <     247.78837490 Ry

     total magnetization       =     0.29 Bohr mag/cell
     absolute magnetization    =     0.34 Bohr mag/cell

     iteration #  3     ecut=   120.00 Ry     beta= 0.40
     Davidson diagonalization with overlap
     ethr =  1.00E-02,  avg # of iterations =  4.3

     total cpu time spent up to now is     1016.5 secs

     total energy              =    -771.32018309 Ry
     estimated scf accuracy    <     102.62179641 Ry

     total magnetization       =     0.25 Bohr mag/cell
     absolute magnetization    =     0.32 Bohr mag/cell

     iteration #  4     ecut=   120.00 Ry     beta= 0.40
     Davidson diagonalization with overlap
     ethr =  1.00E-02,  avg # of iterations =  4.2

     total cpu time spent up to now is     1026.5 secs

     total energy              =    -766.50881372 Ry
     estimated scf accuracy    <      74.33910343 Ry

     total magnetization       =     0.49 Bohr mag/cell
     absolute magnetization    =     0.67 Bohr mag/cell

     iteration #  5     ecut=   120.00 Ry     beta= 0.40
     Davidson diagonalization with overlap
     ethr =  1.00E-02,  avg # of iterations = 10.1

     total cpu time spent up to now is     1045.8 secs

     total energy              =    -773.97110974 Ry
     estimated scf accuracy    <       1.70171907 Ry

     total magnetization       =     0.60 Bohr mag/cell
     absolute magnetization    =     0.66 Bohr mag/cell

     iteration #  6     ecut=   120.00 Ry     beta= 0.40
     Davidson diagonalization with overlap
     ethr =  2.66E-03,  avg # of iterations =  3.7

     total cpu time spent up to now is     1058.0 secs

     total energy              =    -774.87132856 Ry
     estimated scf accuracy    <       1.16522653 Ry

     total magnetization       =     0.56 Bohr mag/cell
     absolute magnetization    =     0.65 Bohr mag/cell

     iteration #  7     ecut=   120.00 Ry     beta= 0.40
     Davidson diagonalization with overlap
     ethr =  1.82E-03,  avg # of iterations =  2.7

     total cpu time spent up to now is     1067.6 secs

     total energy              =    -775.52149940 Ry
     estimated scf accuracy    <       2.81510761 Ry

     total magnetization       =     0.34 Bohr mag/cell
     absolute magnetization    =     0.42 Bohr mag/cell

     iteration #  8     ecut=   120.00 Ry     beta= 0.40
     Davidson diagonalization with overlap
     ethr =  1.82E-03,  avg # of iterations =  2.9

     total cpu time spent up to now is     1077.0 secs

     total energy              =    -775.73178060 Ry
     estimated scf accuracy    <       5.56106652 Ry

     total magnetization       =     0.30 Bohr mag/cell
     absolute magnetization    =     0.39 Bohr mag/cell

     iteration #  9     ecut=   120.00 Ry     beta= 0.40
     Davidson diagonalization with overlap
     ethr =  1.82E-03,  avg # of iterations =  1.3

     total cpu time spent up to now is     1084.4 secs

     total energy              =    -775.71822160 Ry
     estimated scf accuracy    <       5.84516588 Ry

     total magnetization       =     0.33 Bohr mag/cell
     absolute magnetization    =     0.43 Bohr mag/cell

     iteration # 10     ecut=   120.00 Ry     beta= 0.40
     Davidson diagonalization with overlap
     ethr =  1.82E-03,  avg # of iterations =  1.1

     total cpu time spent up to now is     1091.6 secs

     total energy              =    -775.21831230 Ry
     estimated scf accuracy    <       5.68231669 Ry

     total magnetization       =     0.38 Bohr mag/cell
     absolute magnetization    =     0.47 Bohr mag/cell

     iteration # 11     ecut=   120.00 Ry     beta= 0.40
     Davidson diagonalization with overlap
     ethr =  1.82E-03,  avg # of iterations =  1.1

     total cpu time spent up to now is     1098.7 secs

     total energy              =    -775.17151105 Ry
     estimated scf accuracy    <       4.01529615 Ry

     total magnetization       =     0.49 Bohr mag/cell
     absolute magnetization    =     0.55 Bohr mag/cell

     iteration # 12     ecut=   120.00 Ry     beta= 0.40
     Davidson diagonalization with overlap
     ethr =  1.82E-03,  avg # of iterations =  1.1

     total cpu time spent up to now is     1105.8 secs

     total energy              =    -775.25366776 Ry
     estimated scf accuracy    <       3.71186368 Ry

     total magnetization       =     0.46 Bohr mag/cell
     absolute magnetization    =     0.53 Bohr mag/cell

     iteration # 13     ecut=   120.00 Ry     beta= 0.40
     Davidson diagonalization with overlap
     ethr =  1.82E-03,  avg # of iterations =  1.1

     total cpu time spent up to now is     1113.0 secs

     total energy              =    -774.01718958 Ry
     estimated scf accuracy    <       3.97377205 Ry

     total magnetization       =     0.48 Bohr mag/cell
     absolute magnetization    =     0.55 Bohr mag/cell

     iteration # 14     ecut=   120.00 Ry     beta= 0.40
     Davidson diagonalization with overlap
     ethr =  1.82E-03,  avg # of iterations =  2.0

     total cpu time spent up to now is     1122.2 secs

     total energy              =    -774.57358425 Ry
     estimated scf accuracy    <       0.56031815 Ry

     total magnetization       =     2.10 Bohr mag/cell
     absolute magnetization    =     2.11 Bohr mag/cell

     iteration # 15     ecut=   120.00 Ry     beta= 0.40
     Davidson diagonalization with overlap
     ethr =  8.75E-04,  avg # of iterations =  1.1

     total cpu time spent up to now is     1129.4 secs

     total energy              =    -774.58951962 Ry
     estimated scf accuracy    <       0.63243260 Ry

     total magnetization       =     2.64 Bohr mag/cell
     absolute magnetization    =     2.65 Bohr mag/cell

     iteration # 16     ecut=   120.00 Ry     beta= 0.40
     Davidson diagonalization with overlap
     ethr =  8.75E-04,  avg # of iterations =  1.3

     total cpu time spent up to now is     1136.7 secs

     total energy              =    -774.45311444 Ry
     estimated scf accuracy    <       1.31177413 Ry

     total magnetization       =     2.86 Bohr mag/cell
     absolute magnetization    =     2.88 Bohr mag/cell

     iteration # 17     ecut=   120.00 Ry     beta= 0.40
     Davidson diagonalization with overlap
     ethr =  8.75E-04,  avg # of iterations =  2.2

     total cpu time spent up to now is     1144.8 secs

     total energy              =    -774.53080849 Ry
     estimated scf accuracy    <       0.29603556 Ry

     total magnetization       =     2.07 Bohr mag/cell
     absolute magnetization    =     2.10 Bohr mag/cell

     iteration # 18     ecut=   120.00 Ry     beta= 0.40
     Davidson diagonalization with overlap
     ethr =  4.63E-04,  avg # of iterations =  2.0

     total cpu time spent up to now is     1153.0 secs

     total energy              =    -774.63354438 Ry
     estimated scf accuracy    <       0.83866595 Ry

     total magnetization       =     3.61 Bohr mag/cell
     absolute magnetization    =     3.63 Bohr mag/cell

     iteration # 19     ecut=   120.00 Ry     beta= 0.40
     Davidson diagonalization with overlap
     ethr =  4.63E-04,  avg # of iterations =  1.0

     total cpu time spent up to now is     1159.9 secs

     total energy              =    -774.56565355 Ry
     estimated scf accuracy    <       0.89030536 Ry

     total magnetization       =     3.61 Bohr mag/cell
     absolute magnetization    =     3.63 Bohr mag/cell

     iteration # 20     ecut=   120.00 Ry     beta= 0.40
     Davidson diagonalization with overlap
     ethr =  4.63E-04,  avg # of iterations =  1.0

     total cpu time spent up to now is     1166.8 secs

     total energy              =    -774.56160677 Ry
     estimated scf accuracy    <       0.37299356 Ry

     total magnetization       =     3.31 Bohr mag/cell
     absolute magnetization    =     3.34 Bohr mag/cell

     iteration # 21     ecut=   120.00 Ry     beta= 0.40
     Davidson diagonalization with overlap
     ethr =  4.63E-04,  avg # of iterations =  1.1

     total cpu time spent up to now is     1173.9 secs

     total energy              =    -774.56599417 Ry
     estimated scf accuracy    <       0.21321358 Ry

     total magnetization       =     3.15 Bohr mag/cell
     absolute magnetization    =     3.20 Bohr mag/cell

     iteration # 22     ecut=   120.00 Ry     beta= 0.40
     Davidson diagonalization with overlap
[...]
   0.024799796   0.000000000   1.191123466

ATOMIC_POSITIONS (crystal)
Ni            0.4999919423        0.0000000000        0.2419972280
Ni            0.0000050478        0.5000000000        0.2419978817
I             0.2360940594        0.0000000000        0.4494545913
I             0.7360948521        0.5000000000        0.4494580907
I             0.7639069577        0.0000000000        0.0345454761
I             0.2639071406        0.5000000000        0.0345467322



     Writing output data file ./tmp/monoclinic.save/
     NEW-OLD atomic charge density approx. for the potential
     extrapolated charge   67.17285, renormalised to   64.00000
     Generating pointlists ...

     total cpu time spent up to now is     5037.2 secs

     Self-consistent Calculation

     iteration #  1     ecut=   120.00 Ry     beta= 0.40
     Davidson diagonalization with overlap
     c_bands:  1 eigenvalues not converged
     c_bands:  2 eigenvalues not converged
     c_bands:  4 eigenvalues not converged
     c_bands:  2 eigenvalues not converged
     c_bands:  2 eigenvalues not converged
     c_bands:  3 eigenvalues not converged
     c_bands:  4 eigenvalues not converged
     c_bands:  1 eigenvalues not converged
     c_bands:  5 eigenvalues not converged
     c_bands:  4 eigenvalues not converged
     c_bands:  4 eigenvalues not converged
     c_bands:  4 eigenvalues not converged
     c_bands:  2 eigenvalues not converged
     c_bands:  2 eigenvalues not converged
     c_bands:  5 eigenvalues not converged
     c_bands:  2 eigenvalues not converged
     c_bands:  2 eigenvalues not converged
     c_bands:  3 eigenvalues not converged
     c_bands:  4 eigenvalues not converged
     c_bands:  2 eigenvalues not converged
     c_bands:  5 eigenvalues not converged
     c_bands:  5 eigenvalues not converged
     c_bands:  3 eigenvalues not converged
     c_bands:  1 eigenvalues not converged
     c_bands:  4 eigenvalues not converged
     c_bands:  5 eigenvalues not converged
     c_bands:  4 eigenvalues not converged
     c_bands:  2 eigenvalues not converged
     c_bands:  2 eigenvalues not converged
     c_bands:  2 eigenvalues not converged
     c_bands:  2 eigenvalues not converged
     c_bands:  3 eigenvalues not converged
     c_bands:  5 eigenvalues not converged
     c_bands:  3 eigenvalues not converged
     c_bands:  5 eigenvalues not converged
     c_bands:  3 eigenvalues not converged
     c_bands:  4 eigenvalues not converged
     c_bands:  2 eigenvalues not converged
     c_bands:  4 eigenvalues not converged
     c_bands:  4 eigenvalues not converged
     c_bands:  2 eigenvalues not converged
     c_bands:  5 eigenvalues not converged
     c_bands:  4 eigenvalues not converged
     c_bands:  3 eigenvalues not converged
     ethr =  1.00E-06,  avg # of iterations = 23.4

     total cpu time spent up to now is     5088.7 secs

     total energy              =    -681.28524330 Ry
     estimated scf accuracy    <     136.61935791 Ry

     total magnetization       =    -0.00 Bohr mag/cell
     absolute magnetization    =     0.00 Bohr mag/cell

     iteration #  2     ecut=   120.00 Ry     beta= 0.40
     Davidson diagonalization with overlap
     ethr =  1.00E-02,  avg # of iterations = 10.8

     total cpu time spent up to now is     5115.6 secs

     total energy              =    -785.39378099 Ry
     estimated scf accuracy    <     199.63948266 Ry

     total magnetization       =     0.00 Bohr mag/cell
     absolute magnetization    =     0.01 Bohr mag/cell

     iteration #  3     ecut=   120.00 Ry     beta= 0.40
     Davidson diagonalization with overlap
     ethr =  1.00E-02,  avg # of iterations =  3.9

     total cpu time spent up to now is     5127.4 secs

     total energy              =    -774.75695297 Ry
     estimated scf accuracy    <      65.61242350 Ry

     total magnetization       =    -0.00 Bohr mag/cell
     absolute magnetization    =     0.01 Bohr mag/cell

     iteration #  4     ecut=   120.00 Ry     beta= 0.40
     Davidson diagonalization with overlap
     ethr =  1.00E-02,  avg # of iterations =  3.1

     total cpu time spent up to now is     5138.0 secs

     total energy              =    -777.77575392 Ry
     estimated scf accuracy    <      15.85712659 Ry

     total magnetization       =    -0.00 Bohr mag/cell
     absolute magnetization    =     0.01 Bohr mag/cell

     iteration #  5     ecut=   120.00 Ry     beta= 0.40
     Davidson diagonalization with overlap
     ethr =  1.00E-02,  avg # of iterations =  1.0

     total cpu time spent up to now is     5145.0 secs

     total energy              =    -775.45358811 Ry
     estimated scf accuracy    <      13.40639826 Ry

     total magnetization       =    -0.00 Bohr mag/cell
     absolute magnetization    =     0.01 Bohr mag/cell

     iteration #  6     ecut=   120.00 Ry     beta= 0.40
     Davidson diagonalization with overlap
     ethr =  1.00E-02,  avg # of iterations =  1.1

     total cpu time spent up to now is     5152.0 secs

     total energy              =    -775.42420624 Ry
     estimated scf accuracy    <       6.19587799 Ry

     total magnetization       =    -0.01 Bohr mag/cell
     absolute magnetization    =     0.01 Bohr mag/cell

     iteration #  7     ecut=   120.00 Ry     beta= 0.40
     Davidson diagonalization with overlap
     ethr =  9.68E-03,  avg # of iterations =  1.1

     total cpu time spent up to now is     5159.0 secs

     total energy              =    -774.87683267 Ry
     estimated scf accuracy    <       4.92678030 Ry

     total magnetization       =    -0.00 Bohr mag/cell
     absolute magnetization    =     0.00 Bohr mag/cell

     iteration #  8     ecut=   120.00 Ry     beta= 0.40
     Davidson diagonalization with overlap
     ethr =  7.70E-03,  avg # of iterations =  1.1

     total cpu time spent up to now is     5166.0 secs

     total energy              =    -775.06861248 Ry
     estimated scf accuracy    <       2.27048495 Ry

     total magnetization       =    -0.00 Bohr mag/cell
     absolute magnetization    =     0.00 Bohr mag/cell

     iteration #  9     ecut=   120.00 Ry     beta= 0.40
     Davidson diagonalization with overlap
     ethr =  3.55E-03,  avg # of iterations =  1.1

     total cpu time spent up to now is     5173.0 secs

     total energy              =    -774.93689272 Ry
     estimated scf accuracy    <       2.86890387 Ry

     total magnetization       =    -0.01 Bohr mag/cell
     absolute magnetization    =     0.01 Bohr mag/cell

     iteration # 10     ecut=   120.00 Ry     beta= 0.40
     Davidson diagonalization with overlap
     ethr =  3.55E-03,  avg # of iterations =  1.1

     total cpu time spent up to now is     5180.0 secs

     total energy              =    -774.08071186 Ry
     estimated scf accuracy    <       2.17345165 Ry

     total magnetization       =    -0.00 Bohr mag/cell
     absolute magnetization    =     0.00 Bohr mag/cell

     iteration # 11     ecut=   120.00 Ry     beta= 0.40
     Davidson diagonalization with overlap
     ethr =  3.40E-03,  avg # of iterations =  2.1

     total cpu time spent up to now is     5188.8 secs

     total energy              =    -774.88881761 Ry
     estimated scf accuracy    <       2.25928728 Ry

     total magnetization       =    -0.01 Bohr mag/cell
     absolute magnetization    =     0.01 Bohr mag/cell

     iteration # 12     ecut=   120.00 Ry     beta= 0.40
     Davidson diagonalization with overlap
     ethr =  3.40E-03,  avg # of iterations =  1.0

     total cpu time spent up to now is     5195.9 secs

     total energy              =    -774.82822400 Ry
     estimated scf accuracy    <       2.39489223 Ry

     total magnetization       =    -0.01 Bohr mag/cell
     absolute magnetization    =     0.01 Bohr mag/cell

     iteration # 13     ecut=   120.00 Ry     beta= 0.40
     Davidson diagonalization with overlap
     ethr =  3.40E-03,  avg # of iterations =  1.0

     total cpu time spent up to now is     5203.1 secs

     total energy              =    -774.82814540 Ry
     estimated scf accuracy    <       2.00334348 Ry

     total magnetization       =    -0.01 Bohr mag/cell
     absolute magnetization    =     0.01 Bohr mag/cell

     iteration # 14     ecut=   120.00 Ry     beta= 0.40
     Davidson diagonalization with overlap
     ethr =  3.13E-03,  avg # of iterations =  1.0

     total cpu time spent up to now is     5210.0 secs

     total energy              =    -774.83101494 Ry
     estimated scf accuracy    <       1.96161673 Ry

     total magnetization       =    -0.01 Bohr mag/cell
     absolute magnetization    =     0.01 Bohr mag/cell

     iteration # 15     ecut=   120.00 Ry     beta= 0.40
     Davidson diagonalization with overlap
     ethr =  3.07E-03,  avg # of iterations =  1.0

     total cpu time spent up to now is     5217.0 secs

     total energy              =    -774.83304377 Ry
     estimated scf accuracy    <       2.04187465 Ry

     total magnetization       =    -0.01 Bohr mag/cell
     absolute magnetization    =     0.01 Bohr mag/cell

     iteration # 16     ecut=   120.00 Ry     beta= 0.40
     Davidson diagonalization with overlap
     ethr =  3.07E-03,  avg # of iterations =  1.0

     total cpu time spent up to now is     5223.9 secs

     total energy              =    -774.57065521 Ry
     estimated scf accuracy    <       2.60095828 Ry

     total magnetization       =     0.01 Bohr mag/cell
     absolute magnetization    =     0.01 Bohr mag/cell

     iteration # 17     ecut=   120.00 Ry     beta= 0.40
     Davidson diagonalization with overlap
     ethr =  3.07E-03,  avg # of iterations =  1.0

     total cpu time spent up to now is     5230.8 secs

     total energy              =    -774.63728291 Ry
     estimated scf accuracy    <       0.30342159 Ry

     total magnetization       =     0.05 Bohr mag/cell
     absolute magnetization    =     0.06 Bohr mag/cell

     iteration # 18     ecut=   120.00 Ry     beta= 0.40
     Davidson diagonalization with overlap
     ethr =  4.74E-04,  avg # of iterations =  1.2

     total cpu time spent up to now is     5237.9 secs

     total energy              =    -774.60254206 Ry
     estimated scf accuracy    <       0.20022216 Ry

     total magnetization       =     0.06 Bohr mag/cell
     absolute magnetization    =     0.08 Bohr mag/cell

     iteration # 19     ecut=   120.00 Ry     beta= 0.40
     Davidson diagonalization with overlap
     ethr =  3.13E-04,  avg # of iterations =  2.1

     total cpu time spent up to now is     5246.1 secs

     total energy              =    -774.62710563 Ry
     estimated scf accuracy    <       0.05745727 Ry

     total magnetization       =     0.03 Bohr mag/cell
     absolute magnetization    =     0.06 Bohr mag/cell

     iteration # 20     ecut=   120.00 Ry     beta= 0.40
     Davidson diagonalization with overlap
     ethr =  8.98E-05,  avg # of iterations =  1.9

     total cpu time spent up to now is     5253.8 secs

     total energy              =    -774.62532594 Ry
     estimated scf accuracy    <       0.05953187 Ry

     total magnetization       =     0.03 Bohr mag/cell
     absolute magnetization    =     0.05 Bohr mag/cell

     iteration # 21     ecut=   120.00 Ry     beta= 0.40
     Davidson diagonalization with overlap
     ethr =  8.98E-05,  avg # of iterations =  1.1

     total cpu time spent up to now is     5261.0 secs

     total energy              =    -774.62897732 Ry
     estimated scf accuracy    <       0.01519457 Ry

     total magnetization       =     0.05 Bohr mag/cell
     absolute magnetization    =     0.07 Bohr mag/cell

     iteration # 22     ecut=   120.00 Ry     beta= 0.40
     Davidson diagonalization with overlap
     ethr =  2.37E-05,  avg # of iterations =  2.1

     total cpu time spent up to now is     5268.8 secs

     total energy              =    -774.63165048 Ry
     estimated scf accuracy    <       0.00441654 Ry

     total magnetization       =     0.07 Bohr mag/cell
     absolute magnetization    =     0.08 Bohr mag/cell

     iteration # 23     ecut=   120.00 Ry     beta= 0.40
     Davidson diagonalization with overlap
     c_bands:  1 eigenvalues not converged
     c_bands:  1 eigenvalues not converged
     ethr =  6.90E-06,  avg # of iterations =  3.1

     total cpu time spent up to now is     5277.4 secs

     total energy              =    -774.63274165 Ry
     estimated scf accuracy    <       0.00223700 Ry

     total magnetization       =     0.08 Bohr mag/cell
     absolute magnetization    =     0.09 Bohr mag/cell

     iteration # 24     ecut=   120.00 Ry     beta= 0.40
     Davidson diagonalization with overlap
     ethr =  3.50E-06,  avg # of iterations =  1.9

     total cpu time spent up to now is     5285.0 secs

     total energy              =    -774.63265589 Ry
     estimated scf accuracy    <       0.00133172 Ry

     total magnetization       =     0.08 Bohr mag/cell
     absolute magnetization    =     0.10 Bohr mag/cell

     iteration # 25     ecut=   120.00 Ry     beta= 0.40
     Davidson diagonalization with overlap
     ethr =  2.08E-06,  avg # of iterations =  2.7

     total cpu time spent up to now is     5293.2 secs

     total energy              =    -774.63270457 Ry
     estimated scf accuracy    <       0.00027877 Ry

     total magnetization       =     0.11 Bohr mag/cell
     absolute magnetization    =     0.14 Bohr mag/cell

     iteration # 26     ecut=   120.00 Ry     beta= 0.40
     Davidson diagonalization with overlap
     ethr =  4.36E-07,  avg # of iterations =  1.3

     total cpu time spent up to now is     5300.5 secs

     total energy              =    -774.63272764 Ry
     estimated scf accuracy    <       0.00007419 Ry

     total magnetization       =     0.13 Bohr mag/cell
     absolute magnetization    =     0.16 Bohr mag/cell

     iteration # 27     ecut=   120.00 Ry     beta= 0.40
     Davidson diagonalization with overlap
     ethr =  1.16E-07,  avg # of iterations =  1.4

     total cpu time spent up to now is     5307.8 secs

     total energy              =    -774.63267779 Ry
     estimated scf accuracy    <       0.00008172 Ry

     total magnetization       =     0.15 Bohr mag/cell
     absolute magnetization    =     0.18 Bohr mag/cell

     iteration # 28     ecut=   120.00 Ry     beta= 0.40
     Davidson diagonalization with overlap
     ethr =  1.16E-07,  avg # of iterations =  1.4

     total cpu time spent up to now is     5315.4 secs

     total energy              =    -774.63267734 Ry
     estimated scf accuracy    <       0.00003198 Ry

     total magnetization       =     0.10 Bohr mag/cell
     absolute magnetization    =     0.13 Bohr mag/cell

     iteration # 29     ecut=   120.00 Ry     beta= 0.40
     Davidson diagonalization with overlap
     ethr =  5.00E-08,  avg # of iterations =  1.5

     total cpu time spent up to now is     5323.2 secs

     total energy              =    -774.63268405 Ry
     estimated scf accuracy    <       0.00000846 Ry

     total magnetization       =     0.07 Bohr mag/cell
     absolute magnetization    =     0.10 Bohr mag/cell

     iteration # 30     ecut=   120.00 Ry     beta= 0.40
     Davidson diagonalization with overlap
     ethr =  1.32E-08,  avg # of iterations =  1.8

     total cpu time spent up to now is     5330.9 secs

     total energy              =    -774.63268724 Ry
     estimated scf accuracy    <       0.00000275 Ry

     total magnetization       =     0.06 Bohr mag/cell
     absolute magnetization    =     0.09 Bohr mag/cell

     iteration # 31     ecut=   120.00 Ry     beta= 0.40
     Davidson diagonalization with overlap
     ethr =  4.30E-09,  avg # of iterations =  1.5

     total cpu time spent up to now is     5338.8 secs

     total energy              =    -774.63268813 Ry
     estimated scf accuracy    <       0.00000147 Ry

     total magnetization       =     0.05 Bohr mag/cell
     absolute magnetization    =     0.09 Bohr mag/cell

     iteration # 32     ecut=   120.00 Ry     beta= 0.40
     Davidson diagonalization with overlap
     ethr =  2.30E-09,  avg # of iterations =  1.7

     total cpu time spent up to now is     5346.5 secs

     total energy              =    -774.63268917 Ry
     estimated scf accuracy    <       0.00000129 Ry

     total magnetization       =     0.05 Bohr mag/cell
     absolute magnetization    =     0.09 Bohr mag/cell

     iteration # 33     ecut=   120.00 Ry     beta= 0.40
     Davidson diagonalization with overlap
     ethr =  2.01E-09,  avg # of iterations =  1.7

     total cpu time spent up to now is     5354.3 secs

     total energy              =    -774.63268948 Ry
     estimated scf accuracy    <       0.00000122 Ry

     total magnetization       =     0.05 Bohr mag/cell
     absolute magnetization    =     0.09 Bohr mag/cell

     iteration # 34     ecut=   120.00 Ry     beta= 0.40
     Davidson diagonalization with overlap
     ethr =  1.91E-09,  avg # of iterations =  1.0

     total cpu time spent up to now is     5361.2 secs

     total energy              =    -774.63268926 Ry
     estimated scf accuracy    <       0.00000122 Ry

     total magnetization       =     0.05 Bohr mag/cell
     absolute magnetization    =     0.09 Bohr mag/cell

     iteration # 35     ecut=   120.00 Ry     beta= 0.40
     Davidson diagonalization with overlap
     ethr =  1.91E-09,  avg # of iterations =  1.0

     total cpu time spent up to now is     5368.1 secs

     total energy              =    -774.63268934 Ry
     estimated scf accuracy    <       0.00000139 Ry

     total magnetization       =     0.05 Bohr mag/cell
     absolute magnetization    =     0.09 Bohr mag/cell

     iteration # 36     ecut=   120.00 Ry     beta= 0.40
     Davidson diagonalization with overlap
     ethr =  1.91E-09,  avg # of iterations =  1.0

     total cpu time spent up to now is     5375.0 secs

     total energy              =    -774.63268943 Ry
     estimated scf accuracy    <       0.00000131 Ry

     total magnetization       =     0.05 Bohr mag/cell
     absolute magnetization    =     0.09 Bohr mag/cell

     iteration # 37     ecut=   120.00 Ry     beta= 0.40
     Davidson diagonalization with overlap
     ethr =  1.91E-09,  avg # of iterations =  1.0

     total cpu time spent up to now is     5381.9 secs

     total energy              =    -774.63268947 Ry
     estimated scf accuracy    <       0.00000125 Ry

     total magnetization       =     0.05 Bohr mag/cell
     absolute magnetization    =     0.09 Bohr mag/cell

     iteration # 38     ecut=   120.00 Ry     beta= 0.40
     Davidson diagonalization with overlap
     ethr =  1.91E-09,  avg # of iterations =  1.0

     total cpu time spent up to now is     5388.8 secs

     total energy              =    -774.63268943 Ry
     estimated scf accuracy    <       0.00000127 Ry

     total magnetization       =     0.05 Bohr mag/cell
     absolute magnetization    =     0.09 Bohr mag/cell

     iteration # 39     ecut=   120.00 Ry     beta= 0.40
     Davidson diagonalization with overlap
     ethr =  1.91E-09,  avg # of iterations =  1.0

     total cpu time spent up to now is     5395.7 secs

     total energy              =    -774.63268992 Ry
     estimated scf accuracy    <       0.00000122 Ry

     total magnetization       =     0.05 Bohr mag/cell
     absolute magnetization    =     0.09 Bohr mag/cell

     iteration # 40     ecut=   120.00 Ry     beta= 0.40
     Davidson diagonalization with overlap
     ethr =  1.91E-09,  avg # of iterations =  1.0

     total cpu time spent up to now is     5402.6 secs

     total energy              =    -774.63268812 Ry
     estimated scf accuracy    <       0.00000128 Ry

     total magnetization       =     0.05 Bohr mag/cell
     absolute magnetization    =     0.09 Bohr mag/cell

     iteration # 41     ecut=   120.00 Ry     beta= 0.40
     Davidson diagonalization with overlap
