
     Program PWSCF v.6.5 starts on  7Mar2023 at 22:47: 5 

     This program is part of the open-source Quantum ESPRESSO suite
     for quantum simulation of materials; please cite
         "P. Giannozzi et al., J. Phys.:Condens. Matter 21 395502 (2009);
         "P. Giannozzi et al., J. Phys.:Condens. Matter 29 465901 (2017);
          URL http://www.quantum-espresso.org", 
     in publications or presentations arising from this work. More details at
     http://www.quantum-espresso.org/quote

     Parallel version (MPI), running on    96 processors

     MPI processes distributed on     6 nodes
     R & G space division:  proc/nbgrp/npool/nimage =      96
     Reading input from inf_chain.relax.in

     Current dimensions of program PWSCF are:
     Max number of different atomic species (ntypx) = 10
     Max number of k-points (npk) =  40000
     Max angular momentum in pseudopotentials (lmaxx) =  3
               file Fe.pbe-spn-kjpaw_psl.0.2.1.UPF: wavefunction(s)  3D renormalized
               file Nb.pbe-spn-kjpaw_psl.1.0.0.UPF: wavefunction(s)  4S 4P 4D renormalized
               file Se.pbe-n-kjpaw_psl.1.0.0.UPF: wavefunction(s)  4S renormalized

     Subspace diagonalization in iterative solution of the eigenvalue problem:
     one sub-group per band group will be used
     scalapack distributed-memory algorithm (size of sub-group:  9*  9 procs)

 
     Parallelization info
     --------------------
     sticks:   dense  smooth     PW     G-vecs:    dense   smooth      PW
     Min         389     145     37               104437    23971    3161
     Max         390     146     38               104448    23990    3176
     Sum       37435   13999   3643             10026649  2302489  304271
 


     bravais-lattice index     =            0
     lattice parameter (alat)  =      26.0483  a.u.
     unit-cell volume          =   26240.8888 (a.u.)^3
     number of atoms/cell      =           52
     number of atomic types    =            3
     number of electrons       =       464.00
     number of Kohn-Sham states=          278
     kinetic-energy cutoff     =      75.0000  Ry
     charge density cutoff     =     800.0000  Ry
     convergence threshold     =      1.0E-06
     mixing beta               =       0.7000
     number of iterations used =            8  local-TF  mixing
     Exchange-correlation= SLA PW PBX PBC
                           (   1   4   3   4   0   0   0)
     nstep                     =           50


     celldm(1)=  26.048308  celldm(2)=   0.000000  celldm(3)=   0.000000
     celldm(4)=   0.000000  celldm(5)=   0.000000  celldm(6)=   0.000000

     crystal axes: (cart. coord. in units of alat)
               a(1) = (   1.000000   0.000000   0.000000 )  
               a(2) = (  -0.500000   0.866025   0.000000 )  
               a(3) = (   0.000000   0.000000   1.714389 )  

     reciprocal axes: (cart. coord. in units 2 pi/alat)
               b(1) = (  1.000000  0.577350  0.000000 )  
               b(2) = (  0.000000  1.154701  0.000000 )  
               b(3) = (  0.000000  0.000000  0.583298 )  


     PseudoPot. # 1 for Fe read from file:
     /storage/projects/vlc92/pseudopotentials/Fe.pbe-spn-kjpaw_psl.0.2.1.UPF
     MD5 check sum: e86618425769142926afa95317d90200
     Pseudo is Projector augmented-wave + core cor, Zval = 16.0
     Generated using "atomic" code by A. Dal Corso v.5.0.99 svn rev. 10869
     Shape of augmentation charge: PSQ
     Using radial grid of 1191 points,  6 beta functions with: 
                l(1) =   0
                l(2) =   0
                l(3) =   1
                l(4) =   1
                l(5) =   2
                l(6) =   2
     Q(r) pseudized with 0 coefficients 


     PseudoPot. # 2 for Nb read from file:
     /storage/projects/vlc92/pseudopotentials/Nb.pbe-spn-kjpaw_psl.1.0.0.UPF
     MD5 check sum: dcedcbb129af9a7271e4748e5febedb1
     Pseudo is Projector augmented-wave + core cor, Zval = 13.0
     Generated using "atomic" code by A. Dal Corso v.6.2.2
     Shape of augmentation charge: PSQ
     Using radial grid of 1227 points,  6 beta functions with: 
                l(1) =   0
                l(2) =   0
                l(3) =   1
                l(4) =   1
                l(5) =   2
                l(6) =   2
     Q(r) pseudized with 0 coefficients 


     PseudoPot. # 3 for Se read from file:
     /storage/projects/vlc92/pseudopotentials/Se.pbe-n-kjpaw_psl.1.0.0.UPF
     MD5 check sum: 12232cb78b362a7b0fca8da9cb95fd5e
     Pseudo is Projector augmented-wave + core cor, Zval =  6.0
     Generated using "atomic" code by A. Dal Corso v.6.3
     Shape of augmentation charge: PSQ
     Using radial grid of 1211 points,  4 beta functions with: 
                l(1) =   0
                l(2) =   0
                l(3) =   1
                l(4) =   1
     Q(r) pseudized with 0 coefficients 


     atomic species   valence    mass     pseudopotential
        Fe            16.00    55.84500     Fe( 1.00)
        Nb            13.00    92.90638     Nb( 1.00)
        Se             6.00    78.96000     Se( 1.00)

     Starting magnetic structure 
     atomic species   magnetization
        Fe           0.500
        Nb           0.000
        Se           0.000

     No symmetry found



   Cartesian axes

     site n.     atom                  positions (alat units)
         1           Fe  tau(   1) = (  -0.0000000   0.5773503   0.2753014  )
         2           Fe  tau(   2) = (   0.2466667   0.5773503   0.2753014  )
         3           Fe  tau(   3) = (   0.4966667   0.5773503   0.2753014  )
         4           Fe  tau(   4) = (  -0.2533333   0.5773503   0.2753014  )
         5           Nb  tau(   5) = (   0.0000000   0.0000000   0.1220030  )
         6           Se  tau(   6) = (   0.1253757   0.0723857   0.0002899  )
         7           Se  tau(   7) = (   0.1248309   0.0720711   0.2445242  )
         8           Nb  tau(   8) = (   0.2518862   0.0009760   0.1230005  )
         9           Se  tau(   9) = (   0.3749904   0.0714012  -0.0019549  )
        10           Se  tau(  10) = (   0.3740564   0.0766246   0.2444394  )
        11           Nb  tau(  11) = (   0.5000000   0.0054297   0.1224145  )
        12           Se  tau(  12) = (   0.6250096   0.0714012  -0.0019549  )
        13           Se  tau(  13) = (   0.6259436   0.0766246   0.2444394  )
        14           Nb  tau(  14) = (   0.7481138   0.0009760   0.1230005  )
        15           Se  tau(  15) = (   0.8746243   0.0723857   0.0002899  )
        16           Se  tau(  16) = (   0.8751691   0.0720711   0.2445242  )
        17           Nb  tau(  17) = (   0.6220401   0.2182153   0.1189106  )
        18           Se  tau(  18) = (   0.7506695   0.2890506  -0.0019549  )
        19           Se  tau(  19) = (   0.7466129   0.2856300   0.2444394  )
        20           Nb  tau(  20) = (   0.5000000   0.4295948   0.1189106  )
        21           Se  tau(  21) = (   0.6256599   0.5055736  -0.0019549  )
        22           Se  tau(  22) = (   0.6206693   0.5037708   0.2444394  )
        23           Nb  tau(  23) = (   0.3749022   0.6473975   0.1230005  )
        24           Se  tau(  24) = (   0.5000000   0.7212540   0.0002899  )
        25           Se  tau(  25) = (   0.5000000   0.7218831   0.2445242  )
        26           Nb  tau(  26) = (   0.1255135   0.6498155   0.1335769  )
        27           Se  tau(  27) = (   0.2475596   0.7202789   0.0046471  )
        28           Se  tau(  28) = (   0.2536967   0.7238221   0.2483987  )
        29           Nb  tau(  29) = (  -0.1255135   0.6498155   0.1335769  )
        30           Se  tau(  30) = (   0.0000000   0.7196917   0.0100123  )
        31           Se  tau(  31) = (   0.0000000   0.7410766   0.2574988  )
        32           Nb  tau(  32) = (  -0.3749022   0.6473975   0.1230005  )
        33           Se  tau(  33) = (  -0.2475596   0.7202789   0.0046471  )
        34           Se  tau(  34) = (  -0.2536967   0.7238221   0.2483987  )
        35           Nb  tau(  35) = (   0.3779599   0.2182153   0.1189106  )
        36           Se  tau(  36) = (   0.5000000   0.2886751  -0.0064327  )
        37           Se  tau(  37) = (   0.5000000   0.2886751   0.2442140  )
        38           Nb  tau(  38) = (   0.2547022   0.4302979   0.1224145  )
        39           Se  tau(  39) = (   0.3743401   0.5055736  -0.0019549  )
        40           Se  tau(  40) = (   0.3793307   0.5037708   0.2444394  )
        41           Nb  tau(  41) = (   0.0000000   0.4324198   0.1335769  )
        42           Se  tau(  42) = (   0.1232713   0.5061796   0.0100123  )
        43           Se  tau(  43) = (   0.1417912   0.4954871   0.2574988  )
        44           Nb  tau(  44) = (   0.1267884   0.2176519   0.1230005  )
        45           Se  tau(  45) = (   0.2493305   0.2890506  -0.0019549  )
        46           Se  tau(  46) = (   0.2533871   0.2856300   0.2444394  )
        47           Nb  tau(  47) = (  -0.1267884   0.2176519   0.1230005  )
        48           Se  tau(  48) = (   0.0000000   0.2914930   0.0046471  )
        49           Se  tau(  49) = (   0.0000000   0.2844065   0.2483987  )
        50           Nb  tau(  50) = (  -0.2547022   0.4302979   0.1224145  )
        51           Se  tau(  51) = (  -0.1232713   0.5061796   0.0100123  )
        52           Se  tau(  52) = (  -0.1417912   0.4954871   0.2574988  )

     number of k points=     5  Methfessel-Paxton smearing, width (Ry)=  0.0200
                       cart. coord. in units 2pi/alat
        k(    1) = (   0.0000000   0.0000000   0.0000000), wk =   0.1111111
        k(    2) = (   0.0000000   0.3849002   0.0000000), wk =   0.2222222
        k(    3) = (   0.3333333   0.5773503   0.0000000), wk =   0.2222222
        k(    4) = (  -0.3333333   0.1924501   0.0000000), wk =   0.2222222
        k(    5) = (   0.3333333   0.1924501   0.0000000), wk =   0.2222222

     Dense  grid: 10026649 G-vectors     FFT dimensions: ( 240, 240, 405)

     Smooth grid:  2302489 G-vectors     FFT dimensions: ( 144, 144, 250)

     Estimated max dynamical RAM per process >     851.94 MB

     Estimated total dynamical RAM >      79.87 GB
     Generating pointlists ...
     new r_m :   0.0554 (alat units)  1.4423 (a.u.) for type    1
     new r_m :   0.0773 (alat units)  2.0128 (a.u.) for type    2
     new r_m :   0.0554 (alat units)  1.4423 (a.u.) for type    3

     Initial potential from superposition of free atoms

     starting charge  463.97488, renormalised to  464.00000
     Starting wfcs are  388 randomized atomic wfcs
     Checking if some PAW data can be deallocated... 

     total cpu time spent up to now is       64.2 secs

     Self-consistent Calculation

     iteration #  1     ecut=    75.00 Ry     beta= 0.70
     Davidson diagonalization with overlap
     ethr =  1.00E-02,  avg # of iterations =  2.0

     total cpu time spent up to now is      174.3 secs

     total energy              =  -12724.94611550 Ry
     Harris-Foulkes estimate   =  -12724.70037126 Ry
     estimated scf accuracy    <       6.76526262 Ry

     total magnetization       =    18.72 Bohr mag/cell
     absolute magnetization    =    19.18 Bohr mag/cell

     iteration #  2     ecut=    75.00 Ry     beta= 0.70
     Davidson diagonalization with overlap
     ethr =  1.46E-03,  avg # of iterations =  3.4

     total cpu time spent up to now is      279.4 secs

     total energy              =  -12725.32298677 Ry
     Harris-Foulkes estimate   =  -12726.25050972 Ry
     estimated scf accuracy    <      18.12228952 Ry

     total magnetization       =     8.72 Bohr mag/cell
     absolute magnetization    =     9.61 Bohr mag/cell

     iteration #  3     ecut=    75.00 Ry     beta= 0.70
     Davidson diagonalization with overlap
     ethr =  1.46E-03,  avg # of iterations =  1.5

     total cpu time spent up to now is      374.7 secs

     total energy              =  -12725.65407073 Ry
     Harris-Foulkes estimate   =  -12725.77770968 Ry
     estimated scf accuracy    <       1.56365110 Ry

     total magnetization       =    14.48 Bohr mag/cell
     absolute magnetization    =    15.03 Bohr mag/cell

     iteration #  4     ecut=    75.00 Ry     beta= 0.70
     Davidson diagonalization with overlap
     ethr =  3.37E-04,  avg # of iterations =  2.5

     total cpu time spent up to now is      475.4 secs

     total energy              =  -12725.73096091 Ry
     Harris-Foulkes estimate   =  -12725.94285285 Ry
     estimated scf accuracy    <       2.95655552 Ry

     total magnetization       =    12.74 Bohr mag/cell
     absolute magnetization    =    13.49 Bohr mag/cell

     iteration #  5     ecut=    75.00 Ry     beta= 0.70
     Davidson diagonalization with overlap
     ethr =  3.37E-04,  avg # of iterations =  1.7

     total cpu time spent up to now is      564.2 secs

     total energy              =  -12725.83390794 Ry
     Harris-Foulkes estimate   =  -12725.85735018 Ry
     estimated scf accuracy    <       0.22580683 Ry

     total magnetization       =    12.93 Bohr mag/cell
     absolute magnetization    =    13.60 Bohr mag/cell

     iteration #  6     ecut=    75.00 Ry     beta= 0.70
     Davidson diagonalization with overlap
     ethr =  4.87E-05,  avg # of iterations =  7.9

     total cpu time spent up to now is      678.3 secs

     total energy              =  -12725.83808515 Ry
     Harris-Foulkes estimate   =  -12725.85727895 Ry
     estimated scf accuracy    <       0.27207310 Ry

     total magnetization       =    11.83 Bohr mag/cell
     absolute magnetization    =    12.49 Bohr mag/cell

     iteration #  7     ecut=    75.00 Ry     beta= 0.70
     Davidson diagonalization with overlap
     ethr =  4.87E-05,  avg # of iterations =  1.2

     total cpu time spent up to now is      767.6 secs

     total energy              =  -12725.83629813 Ry
     Harris-Foulkes estimate   =  -12725.85350432 Ry
     estimated scf accuracy    <       0.21623053 Ry

     total magnetization       =    11.70 Bohr mag/cell
     absolute magnetization    =    12.35 Bohr mag/cell

     iteration #  8     ecut=    75.00 Ry     beta= 0.70
     Davidson diagonalization with overlap
     ethr =  4.66E-05,  avg # of iterations =  1.1

     total cpu time spent up to now is      854.8 secs

     total energy              =  -12725.83580530 Ry
     Harris-Foulkes estimate   =  -12725.84427818 Ry
     estimated scf accuracy    <       0.05266740 Ry

     total magnetization       =    11.45 Bohr mag/cell
     absolute magnetization    =    12.12 Bohr mag/cell

     iteration #  9     ecut=    75.00 Ry     beta= 0.70
     Davidson diagonalization with overlap
     ethr =  1.14E-05,  avg # of iterations = 11.6

     total cpu time spent up to now is      979.0 secs

     total energy              =  -12725.83373590 Ry
     Harris-Foulkes estimate   =  -12725.83978144 Ry
     estimated scf accuracy    <       0.04211727 Ry

     total magnetization       =    10.69 Bohr mag/cell
     absolute magnetization    =    11.35 Bohr mag/cell

     iteration # 10     ecut=    75.00 Ry     beta= 0.70
     Davidson diagonalization with overlap
     ethr =  9.08E-06,  avg # of iterations =  1.5

     total cpu time spent up to now is     1071.6 secs

     total energy              =  -12725.83522741 Ry
     Harris-Foulkes estimate   =  -12725.83715149 Ry
     estimated scf accuracy    <       0.03475891 Ry

     total magnetization       =     9.90 Bohr mag/cell
     absolute magnetization    =    10.58 Bohr mag/cell

     iteration # 11     ecut=    75.00 Ry     beta= 0.70
     Davidson diagonalization with overlap
     ethr =  7.49E-06,  avg # of iterations =  1.0

     total cpu time spent up to now is     1157.9 secs

     total energy              =  -12725.83333708 Ry
     Harris-Foulkes estimate   =  -12725.83654378 Ry
     estimated scf accuracy    <       0.02342975 Ry

     total magnetization       =     9.76 Bohr mag/cell
     absolute magnetization    =    10.44 Bohr mag/cell

     iteration # 12     ecut=    75.00 Ry     beta= 0.70
     Davidson diagonalization with overlap
     ethr =  5.05E-06,  avg # of iterations =  1.1

     total cpu time spent up to now is     1244.3 secs

     total energy              =  -12725.83261051 Ry
     Harris-Foulkes estimate   =  -12725.83442068 Ry
     estimated scf accuracy    <       0.00880539 Ry

     total magnetization       =     9.41 Bohr mag/cell
     absolute magnetization    =    10.11 Bohr mag/cell

     iteration # 13     ecut=    75.00 Ry     beta= 0.70
     Davidson diagonalization with overlap
     ethr =  1.90E-06,  avg # of iterations =  4.8

     total cpu time spent up to now is     1349.4 secs

     total energy              =  -12725.83360629 Ry
     Harris-Foulkes estimate   =  -12725.83370643 Ry
     estimated scf accuracy    <       0.00403428 Ry

     total magnetization       =     8.97 Bohr mag/cell
     absolute magnetization    =     9.69 Bohr mag/cell

     iteration # 14     ecut=    75.00 Ry     beta= 0.70
     Davidson diagonalization with overlap
     ethr =  8.69E-07,  avg # of iterations =  2.7

     total cpu time spent up to now is     1442.6 secs

     total energy              =  -12725.83386698 Ry
     Harris-Foulkes estimate   =  -12725.83391160 Ry
     estimated scf accuracy    <       0.00695534 Ry

     total magnetization       =     8.90 Bohr mag/cell
     absolute magnetization    =     9.63 Bohr mag/cell

     iteration # 15     ecut=    75.00 Ry     beta= 0.70
     Davidson diagonalization with overlap
     ethr =  8.69E-07,  avg # of iterations =  1.8

     total cpu time spent up to now is     1531.7 secs

     total energy              =  -12725.83428925 Ry
     Harris-Foulkes estimate   =  -12725.83422196 Ry
     estimated scf accuracy    <       0.00411208 Ry

     total magnetization       =     8.80 Bohr mag/cell
     absolute magnetization    =     9.53 Bohr mag/cell

     iteration # 16     ecut=    75.00 Ry     beta= 0.70
     Davidson diagonalization with overlap
     ethr =  8.69E-07,  avg # of iterations =  1.0

     total cpu time spent up to now is     1618.6 secs

     total energy              =  -12725.83454102 Ry
     Harris-Foulkes estimate   =  -12725.83441473 Ry
     estimated scf accuracy    <       0.00075655 Ry

     total magnetization       =     8.91 Bohr mag/cell
     absolute magnetization    =     9.62 Bohr mag/cell

     iteration # 17     ecut=    75.00 Ry     beta= 0.70
     Davidson diagonalization with overlap
     ethr =  1.63E-07,  avg # of iterations =  2.5

     total cpu time spent up to now is     1713.3 secs

     total energy              =  -12725.83472544 Ry
     Harris-Foulkes estimate   =  -12725.83461961 Ry
     estimated scf accuracy    <       0.00107751 Ry

     total magnetization       =     8.90 Bohr mag/cell
     absolute magnetization    =     9.62 Bohr mag/cell

     iteration # 18     ecut=    75.00 Ry     beta= 0.70
     Davidson diagonalization with overlap
     ethr =  1.63E-07,  avg # of iterations =  1.0

     total cpu time spent up to now is     1802.0 secs

     total energy              =  -12725.83479719 Ry
     Harris-Foulkes estimate   =  -12725.83476931 Ry
     estimated scf accuracy    <       0.00033783 Ry

     total magnetization       =     8.98 Bohr mag/cell
     absolute magnetization    =     9.69 Bohr mag/cell

     iteration # 19     ecut=    75.00 Ry     beta= 0.70
     Davidson diagonalization with overlap
     ethr =  7.28E-08,  avg # of iterations =  1.7

     total cpu time spent up to now is     1891.6 secs

     total energy              =  -12725.83486156 Ry
     Harris-Foulkes estimate   =  -12725.83484100 Ry
     estimated scf accuracy    <       0.00007249 Ry

     total magnetization       =     9.09 Bohr mag/cell
     absolute magnetization    =     9.78 Bohr mag/cell

     iteration # 20     ecut=    75.00 Ry     beta= 0.70
     Davidson diagonalization with overlap
     ethr =  1.56E-08,  avg # of iterations =  3.1

     total cpu time spent up to now is     1997.7 secs

     total energy              =  -12725.83490689 Ry
     Harris-Foulkes estimate   =  -12725.83489061 Ry
     estimated scf accuracy    <       0.00006590 Ry

     total magnetization       =     9.18 Bohr mag/cell
     absolute magnetization    =     9.87 Bohr mag/cell

     iteration # 21     ecut=    75.00 Ry     beta= 0.70
     Davidson diagonalization with overlap
     ethr =  1.42E-08,  avg # of iterations =  2.6

     total cpu time spent up to now is     2096.7 secs

     total energy              =  -12725.83493262 Ry
     Harris-Foulkes estimate   =  -12725.83493552 Ry
     estimated scf accuracy    <       0.00006735 Ry

     total magnetization       =     9.28 Bohr mag/cell
     absolute magnetization    =     9.96 Bohr mag/cell

     iteration # 22     ecut=    75.00 Ry     beta= 0.70
     Davidson diagonalization with overlap
     ethr =  1.42E-08,  avg # of iterations =  3.5

     total cpu time spent up to now is     2203.0 secs

     total energy              =  -12725.83495824 Ry
     Harris-Foulkes estimate   =  -12725.83497621 Ry
     estimated scf accuracy    <       0.00004025 Ry

     total magnetization       =     9.39 Bohr mag/cell
     absolute magnetization    =    10.08 Bohr mag/cell

     iteration # 23     ecut=    75.00 Ry     beta= 0.70
     Davidson diagonalization with overlap
     ethr =  8.67E-09,  avg # of iterations =  3.8

     total cpu time spent up to now is     2313.1 secs

     total energy              =  -12725.83497880 Ry
     Harris-Foulkes estimate   =  -12725.83499455 Ry
     estimated scf accuracy    <       0.00001819 Ry

     total magnetization       =     9.50 Bohr mag/cell
     absolute magnetization    =    10.18 Bohr mag/cell

     iteration # 24     ecut=    75.00 Ry     beta= 0.70
     Davidson diagonalization with overlap
     ethr =  3.92E-09,  avg # of iterations =  4.0

     total cpu time spent up to now is     2440.3 secs

     total energy              =  -12725.83500454 Ry
     Harris-Foulkes estimate   =  -12725.83500852 Ry
     estimated scf accuracy    <       0.00001053 Ry

     total magnetization       =     9.59 Bohr mag/cell
     absolute magnetization    =    10.28 Bohr mag/cell

     iteration # 25     ecut=    75.00 Ry     beta= 0.70
     Davidson diagonalization with overlap
     ethr =  2.27E-09,  avg # of iterations =  2.5

     total cpu time spent up to now is     2538.2 secs

     total energy              =  -12725.83499630 Ry
     Harris-Foulkes estimate   =  -12725.83500808 Ry
     estimated scf accuracy    <       0.00001735 Ry

     total magnetization       =     9.56 Bohr mag/cell
     absolute magnetization    =    10.24 Bohr mag/cell

     iteration # 26     ecut=    75.00 Ry     beta= 0.70
     Davidson diagonalization with overlap
     ethr =  2.27E-09,  avg # of iterations =  4.0

     total cpu time spent up to now is     2654.6 secs

     total energy              =  -12725.83501197 Ry
     Harris-Foulkes estimate   =  -12725.83501459 Ry
     estimated scf accuracy    <       0.00000885 Ry

     total magnetization       =     9.63 Bohr mag/cell
     absolute magnetization    =    10.32 Bohr mag/cell

     iteration # 27     ecut=    75.00 Ry     beta= 0.70
     Davidson diagonalization with overlap
     ethr =  1.91E-09,  avg # of iterations =  3.2

     total cpu time spent up to now is     2757.1 secs

     total energy              =  -12725.83501827 Ry
     Harris-Foulkes estimate   =  -12725.83501605 Ry
     estimated scf accuracy    <       0.00000397 Ry

     total magnetization       =     9.67 Bohr mag/cell
     absolute magnetization    =    10.35 Bohr mag/cell

     iteration # 28     ecut=    75.00 Ry     beta= 0.70
     Davidson diagonalization with overlap
     ethr =  8.56E-10,  avg # of iterations =  4.0

     total cpu time spent up to now is     2864.9 secs

     total energy              =  -12725.83501655 Ry
     Harris-Foulkes estimate   =  -12725.83502045 Ry
     estimated scf accuracy    <       0.00000235 Ry

     total magnetization       =     9.68 Bohr mag/cell
     absolute magnetization    =    10.37 Bohr mag/cell

     iteration # 29     ecut=    75.00 Ry     beta= 0.70
     Davidson diagonalization with overlap
     ethr =  5.06E-10,  avg # of iterations =  4.5

     total cpu time spent up to now is     3004.3 secs

     total energy              =  -12725.83502508 Ry
     Harris-Foulkes estimate   =  -12725.83502427 Ry
     estimated scf accuracy    <       0.00000234 Ry

     total magnetization       =     9.73 Bohr mag/cell
     absolute magnetization    =    10.41 Bohr mag/cell

     iteration # 30     ecut=    75.00 Ry     beta= 0.70
     Davidson diagonalization with overlap
     ethr =  5.04E-10,  avg # of iterations =  2.5
 
     Magnetic moment per site:
     atom:    1    charge:   12.9168    magn:    2.1305    constr:    0.0000
     atom:    2    charge:   13.0715    magn:    0.9396    constr:    0.0000
     atom:    3    charge:   13.0513    magn:    1.1085    constr:    0.0000
     atom:    4    charge:   13.0532    magn:    1.2060    constr:    0.0000
     atom:    5    charge:   10.0533    magn:    0.0680    constr:    0.0000
     atom:    6    charge:    1.8076    magn:    0.0019    constr:    0.0000
     atom:    7    charge:    1.8114    magn:    0.0009    constr:    0.0000
     atom:    8    charge:   10.0555    magn:    0.0778    constr:    0.0000
     atom:    9    charge:    1.8086    magn:    0.0019    constr:    0.0000
     atom:   10    charge:    1.8128    magn:    0.0021    constr:    0.0000
     atom:   11    charge:   10.0684    magn:    0.0768    constr:    0.0000
     atom:   12    charge:    1.8085    magn:    0.0022    constr:    0.0000
     atom:   13    charge:    1.8128    magn:    0.0022    constr:    0.0000
     atom:   14    charge:   10.0554    magn:    0.0498    constr:    0.0000
     atom:   15    charge:    1.8076    magn:    0.0021    constr:    0.0000
     atom:   16    charge:    1.8114    magn:    0.0006    constr:    0.0000
     atom:   17    charge:   10.0586    magn:    0.0629    constr:    0.0000
     atom:   18    charge:    1.8082    magn:    0.0032    constr:    0.0000
     atom:   19    charge:    1.8133    magn:   -0.0003    constr:    0.0000
     atom:   20    charge:   10.0880    magn:    0.1325    constr:    0.0000
     atom:   21    charge:    1.8087    magn:    0.0013    constr:    0.0000
     atom:   22    charge:    1.8739    magn:    0.0084    constr:    0.0000
     atom:   23    charge:   10.0981    magn:    0.0572    constr:    0.0000
     atom:   24    charge:    1.8079    magn:    0.0041    constr:    0.0000
     atom:   25    charge:    1.8488    magn:    0.0069    constr:    0.0000
     atom:   26    charge:   10.0615    magn:    0.1573    constr:    0.0000
     atom:   27    charge:    1.8091    magn:    0.0061    constr:    0.0000
     atom:   28    charge:    1.8458    magn:    0.0082    constr:    0.0000
     atom:   29    charge:   10.0597    magn:    0.1715    constr:    0.0000
     atom:   30    charge:    1.8094    magn:    0.0014    constr:    0.0000
     atom:   31    charge:    1.8145    magn:    0.0196    constr:    0.0000
     atom:   32    charge:   10.0977    magn:    0.0801    constr:    0.0000
     atom:   33    charge:    1.8091    magn:    0.0054    constr:    0.0000
     atom:   34    charge:    1.8466    magn:    0.0100    constr:    0.0000
     atom:   35    charge:   10.0587    magn:    0.0726    constr:    0.0000
     atom:   36    charge:    1.8085    magn:    0.0031    constr:    0.0000
     atom:   37    charge:    1.8129    magn:    0.0001    constr:    0.0000
     atom:   38    charge:   10.0927    magn:    0.1297    constr:    0.0000
     atom:   39    charge:    1.8087    magn:    0.0019    constr:    0.0000
     atom:   40    charge:    1.8775    magn:    0.0074    constr:    0.0000
     atom:   41    charge:   10.0468    magn:    0.1442    constr:    0.0000
     atom:   42    charge:    1.8088    magn:    0.0040    constr:    0.0000
     atom:   43    charge:    1.8868    magn:    0.0122    constr:    0.0000
     atom:   44    charge:   10.0488    magn:    0.1044    constr:    0.0000
     atom:   45    charge:    1.8084    magn:    0.0029    constr:    0.0000
     atom:   46    charge:    1.8134    magn:   -0.0003    constr:    0.0000
     atom:   47    charge:   10.0491    magn:    0.1085    constr:    0.0000
     atom:   48    charge:    1.8086    magn:    0.0034    constr:    0.0000
     atom:   49    charge:    1.8117    magn:   -0.0008    constr:    0.0000
     atom:   50    charge:   10.0936    magn:    0.1589    constr:    0.0000
     atom:   51    charge:    1.8087    magn:    0.0037    constr:    0.0000
     atom:   52    charge:    1.8687    magn:    0.0147    constr:    0.0000

     total cpu time spent up to now is     3094.5 secs

     End of self-consistent calculation

 ------ SPIN UP ------------


          k = 0.0000 0.0000 0.0000 (287679 PWs)   bands (ev):

   -89.1678 -88.4786 -88.4147 -88.2565 -56.2320 -56.2232 -56.2200 -56.0739
   -56.0707 -56.0630 -56.0535 -56.0503 -56.0183 -55.9815 -55.9740 -55.9293
   -55.9218 -55.8867 -55.7938 -55.7842 -55.3991 -55.2083 -55.1947 -54.9080
   -54.7862 -54.7805 -54.6893 -54.6827 -54.4252 -54.3644 -54.3076 -54.1119
   -32.4317 -32.3915 -32.3836 -32.3559 -32.3498 -32.3292 -32.3197 -32.3097
   -32.3073 -32.2920 -32.2769 -32.2685 -32.2478 -32.2350 -32.2304 -32.2184
   -32.2149 -32.1839 -32.1806 -32.1756 -32.1634 -32.1575 -32.1524 -32.1455
   -32.1376 -32.0962 -32.0854 -32.0853 -32.0811 -32.0700 -32.0609 -32.0566
   -32.0501 -32.0319 -32.0172 -32.0068 -32.0000 -31.9878 -31.9825 -31.9777
   -31.9601 -31.9482 -31.9407 -31.8800 -31.8758 -31.8579 -31.8439 -31.8234
   -16.0844 -15.7351 -15.5147 -15.2099 -14.9302 -14.6873 -14.5803 -14.3309
   -14.2034 -13.8714 -13.8319 -13.8171 -13.6870 -13.6643 -13.6342 -13.4392
   -13.3410 -13.3293 -13.2502 -13.1945 -13.1886 -13.1699 -13.1454 -13.1269
   -13.1181 -13.0938 -13.0876 -13.0358 -12.9896 -12.9717 -12.9698 -12.9320
    -7.8317  -7.3129  -7.2011  -7.0870  -6.8567  -6.6817  -6.6471  -6.4754
    -6.4286  -6.3584  -6.1457  -6.1251  -6.0289  -5.9237  -5.8980  -5.8949
    -5.8563  -5.7536  -5.6187  -5.5911  -5.5395  -5.4870  -5.4282  -5.3601
    -5.3071  -5.2738  -5.2298  -5.1574  -5.1400  -5.1210  -5.0050  -4.9940
    -4.9544  -4.8167  -4.7638  -4.7433  -4.6943  -4.6458  -4.6448  -4.5145
    -4.4636  -4.4470  -4.4029  -4.3690  -4.3063  -4.2255  -4.2006  -4.1959
    -4.1682  -4.1633  -4.1343  -4.0597  -3.8610  -3.8473  -3.8089  -3.7879
    -3.7799  -3.7704  -3.7572  -3.6371  -3.6119  -3.5724  -3.5612  -3.5345
    -3.5212  -3.4746  -3.4682  -3.4267  -3.4126  -3.3277  -3.2253  -3.1886
    -3.1370  -3.1216  -3.0938  -3.0641  -2.9984  -2.9291  -2.8568  -2.8162
    -2.8029  -2.7951  -2.7370  -2.6316  -2.5944  -2.5501  -2.5306  -2.5255
    -2.4819  -2.4219  -2.4175  -2.3949  -2.3717  -2.3441  -2.2924  -2.2885
    -2.1904  -2.1596  -2.1447  -2.0923  -2.0646  -2.0585  -2.0531  -2.0080
    -1.8806  -1.8537  -1.7848  -1.7266  -1.7028  -1.6391  -1.4932  -1.4452
    -1.4274  -1.3878  -1.3779  -1.2546  -1.1895  -1.1560  -1.1258  -1.0678
    -1.0453  -1.0320  -0.9774  -0.9113  -0.8968  -0.8275  -0.7899  -0.7422
    -0.7287  -0.6880  -0.5968  -0.5580   0.6671   0.7382   0.9162   1.0098
     1.0327   1.0908   1.2328   1.2503   1.2925   1.3239   1.3278   1.3792
     1.3967   1.4388   1.4398   1.4890   1.5217   1.5337   1.5402   1.5561
     1.5676   1.6376   1.6560   1.6947   1.7626   1.8173   1.8191   1.8299
     1.8688   1.9039   1.9180   1.9415   1.9465   2.0084

          k = 0.0000 0.3849 0.0000 (287830 PWs)   bands (ev):

   -89.1678 -88.4786 -88.4147 -88.2565 -56.2320 -56.2232 -56.2200 -56.0739
   -56.0707 -56.0630 -56.0535 -56.0503 -56.0183 -55.9815 -55.9740 -55.9293
   -55.9218 -55.8867 -55.7938 -55.7842 -55.3991 -55.2083 -55.1947 -54.9080
   -54.7863 -54.7805 -54.6893 -54.6827 -54.4252 -54.3645 -54.3076 -54.1119
   -32.4312 -32.3901 -32.3828 -32.3556 -32.3497 -32.3290 -32.3188 -32.3091
   -32.3081 -32.2893 -32.2775 -32.2716 -32.2531 -32.2354 -32.2291 -32.2186
   -32.2113 -32.1912 -32.1830 -32.1776 -32.1653 -32.1599 -32.1538 -32.1422
   -32.1359 -32.0983 -32.0854 -32.0822 -32.0780 -32.0667 -32.0579 -32.0548
   -32.0417 -32.0296 -32.0189 -32.0109 -32.0004 -31.9880 -31.9844 -31.9787
   -31.9597 -31.9482 -31.9426 -31.8803 -31.8759 -31.8579 -31.8449 -31.8235
   -16.0823 -15.7361 -15.5149 -15.2100 -14.9460 -14.6818 -14.5779 -14.3046
   -14.2044 -13.9291 -13.8661 -13.8479 -13.5956 -13.5871 -13.5702 -13.4228
   -13.3861 -13.3819 -13.2626 -13.2404 -13.2269 -13.1687 -13.1471 -13.1230
   -13.1224 -13.0896 -13.0874 -13.0718 -12.9871 -12.9342 -12.9339 -12.9282
    -7.8216  -7.2752  -7.1947  -7.0815  -6.8387  -6.6597  -6.6338  -6.4526
    -6.4264  -6.3560  -6.2162  -6.1385  -6.0579  -5.9693  -5.9480  -5.9113
    -5.8649  -5.8415  -5.6064  -5.5958  -5.5136  -5.4469  -5.4307  -5.3957
    -5.3774  -5.2853  -5.2023  -5.1264  -5.0989  -5.0818  -5.0063  -4.9121
    -4.8834  -4.8786  -4.8357  -4.7373  -4.7311  -4.5675  -4.5573  -4.5347
    -4.5023  -4.4681  -4.4385  -4.4181  -4.3521  -4.2584  -4.2479  -4.1773
    -4.1434  -4.1162  -4.0565  -3.9388  -3.9342  -3.9130  -3.9011  -3.8287
    -3.8096  -3.7841  -3.7139  -3.6992  -3.6575  -3.6164  -3.5815  -3.5197
    -3.4686  -3.3880  -3.3027  -3.2964  -3.2529  -3.2394  -3.1936  -3.1781
    -3.1283  -3.1207  -3.0558  -3.0101  -2.9979  -2.9082  -2.8930  -2.8510
    -2.8295  -2.8016  -2.7212  -2.6954  -2.6247  -2.6012  -2.5498  -2.5403
    -2.5057  -2.4586  -2.3960  -2.3771  -2.3528  -2.3454  -2.3144  -2.2726
    -2.2625  -2.2194  -2.1993  -2.1880  -2.1484  -2.0740  -2.0292  -1.9392
    -1.9065  -1.8629  -1.8136  -1.7927  -1.7743  -1.5667  -1.5120  -1.4467
    -1.4273  -1.3578  -1.3270  -1.3159  -1.1298  -1.1037  -1.0849  -1.0692
    -1.0510  -1.0324  -0.9770  -0.9259  -0.8514  -0.8221  -0.7619  -0.7263
    -0.6324  -0.5964  -0.5327  -0.4894   0.6073   0.6814   0.9442   0.9875
     1.0130   1.0893   1.1623   1.1785   1.2096   1.2326   1.2797   1.3399
     1.3581   1.4331   1.4371   1.5182   1.5227   1.5361   1.5496   1.5837
     1.5998   1.6124   1.6388   1.6657   1.6845   1.7444   1.7518   1.7741
     1.7852   1.8323   1.8393   1.8563   1.9127   1.9420

          k = 0.3333 0.5774 0.0000 (287970 PWs)   bands (ev):

   -89.1678 -88.4786 -88.4147 -88.2565 -56.2320 -56.2232 -56.2200 -56.0739
   -56.0706 -56.0630 -56.0535 -56.0503 -56.0183 -55.9816 -55.9740 -55.9293
   -55.9218 -55.8867 -55.7938 -55.7842 -55.3992 -55.2083 -55.1947 -54.9080
   -54.7863 -54.7805 -54.6893 -54.6827 -54.4253 -54.3644 -54.3076 -54.1119
   -32.4273 -32.3900 -32.3814 -32.3629 -32.3490 -32.3357 -32.3174 -32.3146
   -32.3041 -32.2826 -32.2766 -32.2703 -32.2524 -32.2355 -32.2350 -32.2192
   -32.2080 -32.1908 -32.1800 -32.1777 -32.1632 -32.1567 -32.1504 -32.1433
   -32.1363 -32.1109 -32.0931 -32.0853 -32.0756 -32.0645 -32.0575 -32.0515
   -32.0352 -32.0273 -32.0189 -32.0121 -32.0008 -31.9891 -31.9860 -31.9795
   -31.9554 -31.9525 -31.9382 -31.8812 -31.8758 -31.8580 -31.8446 -31.8251
   -16.0632 -15.8075 -15.4130 -15.2600 -14.9240 -14.7572 -14.5060 -14.3084
   -14.1721 -14.0612 -13.9155 -13.7071 -13.6180 -13.5548 -13.5179 -13.3983
   -13.3749 -13.3415 -13.3302 -13.2772 -13.2663 -13.2331 -13.1618 -13.1353
   -13.1091 -13.0785 -13.0611 -13.0284 -13.0083 -12.9720 -12.9146 -12.8926
    -7.7439  -7.4516  -7.2238  -6.9769  -6.7986  -6.6820  -6.5567  -6.4795
    -6.4219  -6.3394  -6.2365  -6.1164  -6.0727  -6.0115  -5.9170  -5.8895
    -5.8524  -5.8342  -5.7088  -5.6792  -5.5133  -5.3892  -5.3793  -5.3162
    -5.2738  -5.2418  -5.2114  -5.2011  -5.1638  -5.1237  -5.0320  -4.9796
    -4.9472  -4.8432  -4.8331  -4.7704  -4.7647  -4.6054  -4.5651  -4.5495
    -4.4726  -4.4377  -4.4282  -4.3857  -4.3446  -4.3162  -4.2948  -4.2486
    -4.1960  -4.1438  -4.0850  -3.9933  -3.9101  -3.8818  -3.7904  -3.7442
    -3.7405  -3.6869  -3.6546  -3.6097  -3.5910  -3.5631  -3.5182  -3.4846
    -3.4667  -3.4068  -3.3605  -3.3501  -3.3291  -3.2625  -3.2163  -3.1645
    -3.1050  -3.0946  -3.0805  -3.0357  -3.0138  -2.9417  -2.9083  -2.8810
    -2.7859  -2.7603  -2.7156  -2.6705  -2.5718  -2.5448  -2.5220  -2.4968
    -2.4876  -2.4736  -2.4471  -2.4212  -2.3915  -2.3488  -2.3413  -2.3161
    -2.2706  -2.2445  -2.2368  -2.1506  -2.1202  -2.0976  -2.0635  -1.9958
    -1.9511  -1.8701  -1.8266  -1.8075  -1.7438  -1.6148  -1.5818  -1.4920
    -1.4711  -1.3968  -1.2257  -1.2011  -1.1888  -1.1499  -1.1113  -1.0624
    -1.0234  -0.9421  -0.9260  -0.8867  -0.8500  -0.7932  -0.7567  -0.6799
    -0.6320  -0.5870  -0.5068  -0.4437   0.6277   0.7465   0.8831   0.9089
     0.9698   1.0089   1.1301   1.1914   1.2482   1.2742   1.2796   1.3219
     1.3566   1.3903   1.4237   1.4735   1.5020   1.5294   1.5625   1.5774
     1.5887   1.6149   1.6185   1.6501   1.6735   1.6938   1.6951   1.7238
     1.7403   1.7994   1.8230   1.8515   1.8998   1.9289

          k =-0.3333 0.1925 0.0000 (287830 PWs)   bands (ev):

   -89.1678 -88.4786 -88.4147 -88.2565 -56.2320 -56.2232 -56.2200 -56.0739
   -56.0706 -56.0630 -56.0535 -56.0503 -56.0183 -55.9816 -55.9740 -55.9293
   -55.9218 -55.8867 -55.7938 -55.7842 -55.3991 -55.2083 -55.1947 -54.9080
   -54.7862 -54.7805 -54.6893 -54.6827 -54.4253 -54.3645 -54.3076 -54.1119
   -32.4275 -32.3905 -32.3819 -32.3630 -32.3491 -32.3358 -32.3189 -32.3130
   -32.3051 -32.2816 -32.2784 -32.2690 -32.2498 -32.2362 -32.2344 -32.2186
   -32.2100 -32.1868 -32.1822 -32.1747 -32.1586 -32.1561 -32.1512 -32.1445
   -32.1375 -32.1120 -32.0953 -32.0829 -32.0764 -32.0660 -32.0596 -32.0552
   -32.0381 -32.0288 -32.0171 -32.0104 -32.0004 -31.9893 -31.9847 -31.9789
   -31.9555 -31.9524 -31.9373 -31.8811 -31.8758 -31.8580 -31.8441 -31.8250
   -16.0645 -15.8068 -15.4129 -15.2599 -14.9134 -14.7632 -14.5067 -14.3194
   -14.1844 -14.0404 -13.8591 -13.7794 -13.6153 -13.5890 -13.4678 -13.4470
   -13.4054 -13.3542 -13.3113 -13.2371 -13.2315 -13.2140 -13.1732 -13.1384
   -13.1047 -13.0545 -13.0361 -13.0286 -13.0157 -13.0096 -12.9162 -12.9080
    -7.7508  -7.4516  -7.2482  -6.9670  -6.8128  -6.7006  -6.5745  -6.4747
    -6.4296  -6.3363  -6.2231  -6.0976  -6.0435  -5.9900  -5.8891  -5.8638
    -5.8425  -5.8122  -5.7210  -5.6615  -5.5042  -5.4281  -5.3514  -5.3121
    -5.3050  -5.2755  -5.2642  -5.2119  -5.1852  -5.1211  -5.0099  -4.9338
    -4.9086  -4.8924  -4.8164  -4.7526  -4.7381  -4.6037  -4.5648  -4.5114
    -4.4831  -4.4636  -4.4486  -4.4110  -4.3754  -4.3090  -4.2958  -4.2312
    -4.1605  -4.1201  -4.0217  -4.0092  -3.9181  -3.8644  -3.8112  -3.7670
    -3.7496  -3.7213  -3.7004  -3.6738  -3.6153  -3.5605  -3.5382  -3.5188
    -3.4600  -3.4040  -3.3733  -3.3401  -3.3078  -3.2751  -3.2163  -3.1484
    -3.1115  -3.0890  -3.0341  -3.0049  -2.9679  -2.9239  -2.8714  -2.8490
    -2.8246  -2.7763  -2.7516  -2.7165  -2.6767  -2.6479  -2.5884  -2.5436
    -2.5213  -2.4939  -2.4567  -2.4396  -2.4212  -2.3021  -2.2526  -2.2382
    -2.2134  -2.1967  -2.1623  -2.1373  -2.0774  -2.0531  -1.9926  -1.9529
    -1.9254  -1.8731  -1.8353  -1.7664  -1.7101  -1.6780  -1.5992  -1.5221
    -1.4691  -1.4346  -1.2369  -1.2227  -1.1917  -1.1471  -1.1088  -1.0495
    -1.0193  -1.0106  -0.9357  -0.9188  -0.8369  -0.7798  -0.7474  -0.6853
    -0.6638  -0.6013  -0.5627  -0.5278   0.6844   0.7947   0.8778   0.9361
     0.9870   1.0464   1.1271   1.1603   1.2283   1.2914   1.3106   1.3454
     1.3890   1.4175   1.4399   1.4698   1.5020   1.5291   1.5465   1.5679
     1.5911   1.6133   1.6350   1.6854   1.6982   1.7470   1.7853   1.7982
     1.8350   1.8550   1.8807   1.9011   1.9355   1.9512

          k = 0.3333 0.1925 0.0000 (287830 PWs)   bands (ev):

   -89.1678 -88.4786 -88.4147 -88.2565 -56.2320 -56.2232 -56.2200 -56.0739
   -56.0706 -56.0630 -56.0535 -56.0503 -56.0183 -55.9816 -55.9740 -55.9293
   -55.9218 -55.8867 -55.7938 -55.7842 -55.3991 -55.2083 -55.1947 -54.9080
   -54.7863 -54.7805 -54.6893 -54.6827 -54.4252 -54.3645 -54.3076 -54.1119
   -32.4276 -32.3909 -32.3816 -32.3630 -32.3490 -32.3357 -32.3186 -32.3133
   -32.3051 -32.2815 -32.2780 -32.2691 -32.2497 -32.2362 -32.2341 -32.2194
   -32.2095 -32.1875 -32.1820 -32.1754 -32.1598 -32.1556 -32.1501 -32.1434
   -32.1382 -32.1122 -32.0931 -32.0878 -32.0754 -32.0649 -32.0591 -32.0525
   -32.0393 -32.0289 -32.0186 -32.0094 -32.0004 -31.9893 -31.9847 -31.9790
   -31.9555 -31.9525 -31.9374 -31.8811 -31.8758 -31.8580 -31.8440 -31.8251
   -16.0644 -15.8068 -15.4129 -15.2599 -14.9134 -14.7634 -14.5066 -14.3198
   -14.1834 -14.0402 -13.8605 -13.7782 -13.6151 -13.5897 -13.4682 -13.4474
   -13.4051 -13.3538 -13.3117 -13.2371 -13.2310 -13.2151 -13.1718 -13.1383
   -13.1044 -13.0553 -13.0376 -13.0276 -13.0168 -13.0081 -12.9161 -12.9081
    -7.7510  -7.4518  -7.2488  -6.9716  -6.8063  -6.7019  -6.5758  -6.4747
    -6.4251  -6.3368  -6.2187  -6.0932  -6.0480  -5.9854  -5.9108  -5.8760
    -5.8389  -5.7884  -5.7198  -5.6688  -5.5022  -5.4257  -5.3550  -5.3122
    -5.3026  -5.2799  -5.2631  -5.2178  -5.1790  -5.1223  -5.0075  -4.9314
    -4.9001  -4.8777  -4.8143  -4.7645  -4.7325  -4.6015  -4.5742  -4.5117
    -4.4800  -4.4695  -4.4553  -4.4086  -4.3830  -4.3087  -4.3010  -4.2320
    -4.1733  -4.1316  -4.0308  -3.9978  -3.9161  -3.8627  -3.8137  -3.7655
    -3.7544  -3.7172  -3.6945  -3.6690  -3.6132  -3.5549  -3.5301  -3.5237
    -3.4617  -3.4053  -3.3749  -3.3310  -3.3005  -3.2799  -3.2086  -3.1512
    -3.1203  -3.0946  -3.0371  -3.0036  -2.9664  -2.9181  -2.8654  -2.8554
    -2.8143  -2.7702  -2.7425  -2.7142  -2.6783  -2.6585  -2.5775  -2.5585
    -2.5310  -2.4838  -2.4709  -2.4396  -2.4057  -2.3063  -2.2471  -2.2353
    -2.2094  -2.1952  -2.1591  -2.1325  -2.0935  -2.0645  -1.9983  -1.9479
    -1.9260  -1.8654  -1.8397  -1.7792  -1.7014  -1.6751  -1.5952  -1.5123
    -1.4707  -1.4563  -1.2431  -1.2197  -1.1768  -1.1452  -1.1093  -1.0570
    -1.0259  -1.0089  -0.9303  -0.9194  -0.8393  -0.7701  -0.7165  -0.6983
    -0.6745  -0.6012  -0.5684  -0.5345   0.6867   0.7957   0.8783   0.9341
     0.9884   1.0462   1.1280   1.1575   1.2268   1.2889   1.3073   1.3509
     1.3884   1.4155   1.4403   1.4700   1.5035   1.5271   1.5449   1.5684
     1.5905   1.6130   1.6362   1.6826   1.6973   1.7455   1.7826   1.7950
     1.8357   1.8555   1.8804   1.8989   1.9365   1.9512

 ------ SPIN DOWN ----------


          k = 0.0000 0.0000 0.0000 (287679 PWs)   bands (ev):

   -87.0750 -87.0175 -86.9572 -86.4507 -56.1169 -56.1001 -56.0879 -56.0118
   -56.0018 -55.9725 -55.9658 -55.9524 -55.9437 -55.9357 -55.9216 -55.8487
   -55.8385 -55.8278 -55.7410 -55.7335 -53.6788 -53.4999 -53.4618 -53.4054
   -53.3846 -53.3251 -52.8090 -52.7846 -52.7294 -52.6700 -52.6336 -52.5423
   -32.2938 -32.2602 -32.2466 -32.2361 -32.2267 -32.2173 -32.1995 -32.1966
   -32.1934 -32.1835 -32.1766 -32.1744 -32.1414 -32.1386 -32.1335 -32.1171
   -32.1060 -32.0997 -32.0884 -32.0785 -32.0660 -32.0559 -32.0502 -32.0467
   -32.0341 -32.0265 -32.0199 -32.0126 -32.0059 -31.9909 -31.9861 -31.9786
   -31.9626 -31.9567 -31.9456 -31.9202 -31.9146 -31.9055 -31.9018 -31.8911
   -31.8866 -31.8803 -31.8737 -31.8238 -31.8125 -31.8041 -31.7754 -31.7638
   -16.0228 -15.6662 -15.4351 -15.1323 -14.8807 -14.6331 -14.5264 -14.2987
   -14.1545 -13.8574 -13.8195 -13.8031 -13.6709 -13.6466 -13.6172 -13.4300
   -13.3323 -13.3220 -13.2407 -13.1855 -13.1796 -13.1633 -13.1319 -13.1190
   -13.1022 -13.0820 -13.0759 -13.0256 -12.9801 -12.9631 -12.9611 -12.9251
    -7.7163  -7.1489  -6.9977  -6.8726  -6.7154  -6.5316  -6.5063  -6.3152
    -6.2075  -6.1346  -5.8846  -5.8600  -5.8185  -5.7966  -5.7684  -5.7477
    -5.6653  -5.5731  -5.4858  -5.4723  -5.4392  -5.4095  -5.3081  -5.2914
    -5.2318  -5.2192  -5.1814  -5.1032  -5.0679  -5.0575  -4.9439  -4.9226
    -4.8530  -4.7018  -4.6754  -4.6212  -4.5620  -4.5460  -4.5452  -4.4312
    -4.3869  -4.3750  -4.2936  -4.2771  -4.2132  -4.1604  -4.1460  -4.1449
    -4.1133  -4.1001  -4.0789  -3.8491  -3.8123  -3.7848  -3.6798  -3.6708
    -3.6391  -3.6317  -3.6211  -3.5096  -3.4861  -3.4628  -3.4335  -3.3940
    -3.3808  -3.3470  -3.3127  -3.2266  -3.2181  -3.0530  -2.9985  -2.9438
    -2.8287  -2.8145  -2.7513  -2.7417  -2.7306  -2.6184  -2.5925  -2.5182
    -2.4763  -2.4545  -2.4389  -2.4341  -2.3720  -2.3313  -2.3032  -2.2670
    -2.2641  -2.2523  -2.2411  -2.2191  -2.1712  -2.0866  -2.0760  -2.0482
    -2.0434  -2.0084  -1.9052  -1.8070  -1.7085  -1.6743  -1.5983  -1.5406
    -1.4964  -1.4333  -1.3803  -1.1816  -1.1699  -1.1022  -1.0749  -1.0227
    -0.9718  -0.9542  -0.9358  -0.9036  -0.7703  -0.7055  -0.6758  -0.6334
    -0.6153  -0.5670  -0.4614  -0.4086  -0.3097  -0.2244  -0.2190  -0.1620
    -0.1164  -0.0530  -0.0404  -0.0264   0.9035   0.9396   1.0559   1.2445
     1.2759   1.2969   1.3957   1.4006   1.4164   1.4576   1.4643   1.5089
     1.5412   1.5588   1.5762   1.6163   1.6404   1.6466   1.6601   1.6688
     1.7042   1.7577   1.7883   1.8259   1.8799   1.9512   1.9618   1.9706
     2.0066   2.0163   2.0263   2.0460   2.0689   2.0888

          k = 0.0000 0.3849 0.0000 (287830 PWs)   bands (ev):

   -87.0750 -87.0175 -86.9572 -86.4507 -56.1169 -56.1001 -56.0879 -56.0118
   -56.0018 -55.9725 -55.9658 -55.9524 -55.9437 -55.9357 -55.9216 -55.8487
   -55.8385 -55.8278 -55.7410 -55.7335 -53.6788 -53.4999 -53.4618 -53.4054
   -53.3846 -53.3251 -52.8090 -52.7846 -52.7294 -52.6700 -52.6336 -52.5423
   -32.2929 -32.2586 -32.2465 -32.2349 -32.2266 -32.2153 -32.1983 -32.1955
   -32.1910 -32.1810 -32.1755 -32.1733 -32.1484 -32.1465 -32.1415 -32.1237
   -32.1069 -32.1021 -32.0856 -32.0775 -32.0687 -32.0556 -32.0501 -32.0455
   -32.0312 -32.0266 -32.0209 -32.0089 -32.0010 -31.9863 -31.9803 -31.9766
   -31.9633 -31.9547 -31.9463 -31.9203 -31.9167 -31.9056 -31.9019 -31.8911
   -31.8886 -31.8814 -31.8750 -31.8238 -31.8126 -31.8042 -31.7766 -31.7640
   -16.0206 -15.6673 -15.4352 -15.1324 -14.8981 -14.6268 -14.5240 -14.2642
   -14.1655 -13.9080 -13.8531 -13.8313 -13.5838 -13.5721 -13.5596 -13.4130
   -13.3740 -13.3703 -13.2515 -13.2303 -13.2172 -13.1623 -13.1343 -13.1155
   -13.1076 -13.0795 -13.0787 -13.0635 -12.9774 -12.9263 -12.9242 -12.9186
    -7.7057  -7.1017  -6.9905  -6.8629  -6.6879  -6.5120  -6.4795  -6.2897
    -6.2057  -6.1334  -6.0245  -5.8906  -5.8740  -5.8546  -5.8313  -5.7612
    -5.6905  -5.6292  -5.4878  -5.4678  -5.4416  -5.3722  -5.3394  -5.2948
    -5.2891  -5.1846  -5.1422  -5.0709  -5.0443  -5.0234  -4.8911  -4.8062
    -4.8015  -4.7927  -4.7072  -4.6441  -4.6245  -4.5024  -4.4749  -4.4577
    -4.4053  -4.3741  -4.3474  -4.3287  -4.2705  -4.1897  -4.1766  -4.0799
    -4.0585  -4.0282  -3.8644  -3.8302  -3.8169  -3.7822  -3.7300  -3.7171
    -3.6472  -3.6426  -3.6008  -3.5682  -3.4965  -3.4686  -3.4214  -3.3855
    -3.3798  -3.1544  -3.1136  -3.1008  -3.0783  -3.0664  -3.0398  -3.0002
    -2.8975  -2.8907  -2.8635  -2.8459  -2.6845  -2.6649  -2.6107  -2.5974
    -2.5190  -2.4937  -2.4630  -2.4478  -2.4094  -2.4047  -2.3729  -2.3204
    -2.2962  -2.2532  -2.2459  -2.1601  -2.1496  -2.0726  -2.0517  -2.0316
    -1.9621  -1.9522  -1.8917  -1.8169  -1.7438  -1.7335  -1.5915  -1.5544
    -1.4659  -1.3812  -1.2843  -1.2125  -1.1798  -1.1451  -1.1064  -1.0458
    -0.9221  -0.9111  -0.8716  -0.8218  -0.7730  -0.7637  -0.7164  -0.7016
    -0.5891  -0.5307  -0.3827  -0.3298  -0.2651  -0.1919  -0.1810  -0.1453
    -0.1301  -0.0455  -0.0409  -0.0048   0.8501   0.8893   1.1426   1.1909
     1.2282   1.2934   1.3182   1.3272   1.3591   1.3631   1.4363   1.4494
     1.5292   1.5614   1.5886   1.6047   1.6213   1.6352   1.6404   1.6882
     1.7250   1.7409   1.7499   1.7809   1.8266   1.8596   1.8765   1.8897
     1.9139   1.9294   1.9481   1.9876   2.0263   2.0546

          k = 0.3333 0.5774 0.0000 (287970 PWs)   bands (ev):

   -87.0750 -87.0175 -86.9572 -86.4507 -56.1169 -56.1001 -56.0879 -56.0118
   -56.0018 -55.9725 -55.9658 -55.9524 -55.9437 -55.9357 -55.9216 -55.8487
   -55.8385 -55.8278 -55.7410 -55.7335 -53.6788 -53.4999 -53.4619 -53.4054
   -53.3846 -53.3251 -52.8090 -52.7846 -52.7294 -52.6700 -52.6336 -52.5423
   -32.2880 -32.2582 -32.2458 -32.2340 -32.2287 -32.2203 -32.2118 -32.1963
   -32.1909 -32.1783 -32.1741 -32.1593 -32.1506 -32.1453 -32.1383 -32.1276
   -32.1148 -32.0954 -32.0880 -32.0778 -32.0705 -32.0573 -32.0492 -32.0458
   -32.0343 -32.0268 -32.0169 -32.0092 -31.9925 -31.9823 -31.9817 -31.9779
   -31.9636 -31.9562 -31.9454 -31.9275 -31.9200 -31.9061 -31.9057 -31.8919
   -31.8825 -31.8797 -31.8688 -31.8238 -31.8137 -31.8051 -31.7762 -31.7658
   -16.0028 -15.7352 -15.3355 -15.1825 -14.8765 -14.7029 -14.4511 -14.2554
   -14.1517 -14.0390 -13.8926 -13.6949 -13.6055 -13.5411 -13.5083 -13.3883
   -13.3637 -13.3317 -13.3220 -13.2634 -13.2525 -13.2209 -13.1527 -13.1258
   -13.0999 -13.0697 -13.0527 -13.0209 -12.9972 -12.9617 -12.9065 -12.8826
    -7.6234  -7.2710  -7.0576  -6.7998  -6.5687  -6.5345  -6.3785  -6.2938
    -6.2046  -6.1378  -6.0669  -5.9280  -5.8873  -5.8475  -5.7678  -5.7274
    -5.7106  -5.6490  -5.5853  -5.5382  -5.4572  -5.3295  -5.2978  -5.2479
    -5.1715  -5.1534  -5.1478  -5.1102  -5.0802  -5.0301  -4.9215  -4.8990
    -4.8463  -4.7607  -4.7498  -4.6972  -4.6657  -4.5195  -4.4780  -4.4581
    -4.3818  -4.3636  -4.3301  -4.2746  -4.2638  -4.2197  -4.2041  -4.1878
    -4.0656  -4.0392  -3.9275  -3.8804  -3.7545  -3.7091  -3.6681  -3.5849
    -3.5718  -3.5428  -3.5131  -3.4792  -3.4414  -3.4319  -3.3938  -3.3747
    -3.3141  -3.2906  -3.2590  -3.1991  -3.1456  -3.0857  -2.9974  -2.9620
    -2.9307  -2.8779  -2.7928  -2.7743  -2.7293  -2.6668  -2.6350  -2.5939
    -2.5402  -2.4819  -2.4424  -2.4234  -2.4173  -2.3981  -2.3875  -2.3684
    -2.3379  -2.3213  -2.2211  -2.1889  -2.1741  -2.1114  -2.0873  -2.0502
    -2.0398  -1.9315  -1.8601  -1.8516  -1.7441  -1.6512  -1.5754  -1.5050
    -1.4598  -1.3760  -1.2875  -1.2685  -1.2514  -1.1375  -1.0276  -0.9694
    -0.9254  -0.9089  -0.8604  -0.8116  -0.7655  -0.7481  -0.6873  -0.6563
    -0.5700  -0.5456  -0.4429  -0.3223  -0.2712  -0.2134  -0.1661  -0.1398
    -0.1196  -0.0429  -0.0179   0.0024   0.8610   0.9609   1.0676   1.1040
     1.1747   1.2167   1.2756   1.3723   1.3946   1.4248   1.4405   1.5033
     1.5084   1.5321   1.5407   1.5650   1.5856   1.6311   1.6378   1.6800
     1.7032   1.7310   1.7498   1.7760   1.7855   1.8042   1.8242   1.8381
     1.8516   1.9186   1.9269   1.9477   2.0095   2.0753

          k =-0.3333 0.1925 0.0000 (287830 PWs)   bands (ev):

   -87.0750 -87.0175 -86.9572 -86.4507 -56.1169 -56.1001 -56.0879 -56.0118
   -56.0018 -55.9725 -55.9658 -55.9524 -55.9437 -55.9357 -55.9216 -55.8487
   -55.8385 -55.8278 -55.7410 -55.7335 -53.6788 -53.4999 -53.4618 -53.4054
   -53.3846 -53.3251 -52.8090 -52.7846 -52.7294 -52.6700 -52.6336 -52.5423
   -32.2885 -32.2587 -32.2459 -32.2346 -32.2290 -32.2207 -32.2130 -32.1964
   -32.1928 -32.1784 -32.1751 -32.1621 -32.1440 -32.1400 -32.1360 -32.1257
   -32.1132 -32.0964 -32.0893 -32.0787 -32.0657 -32.0593 -32.0499 -32.0441
   -32.0337 -32.0300 -32.0187 -32.0096 -31.9940 -31.9858 -31.9832 -31.9800
   -31.9629 -31.9570 -31.9450 -31.9262 -31.9200 -31.9063 -31.9054 -31.8911
   -31.8822 -31.8795 -31.8680 -31.8238 -31.8136 -31.8050 -31.7756 -31.7656
   -16.0041 -15.7344 -15.3355 -15.1824 -14.8649 -14.7094 -14.4518 -14.2738
   -14.1537 -14.0198 -13.8423 -13.7620 -13.6023 -13.5777 -13.4582 -13.4329
   -13.3957 -13.3441 -13.3009 -13.2259 -13.2217 -13.2046 -13.1618 -13.1275
   -13.0958 -13.0455 -13.0262 -13.0189 -13.0056 -13.0004 -12.9071 -12.8994
    -7.6303  -7.2711  -7.0876  -6.7901  -6.5951  -6.5531  -6.4055  -6.2850
    -6.2523  -6.0940  -5.9947  -5.9105  -5.8339  -5.8067  -5.7518  -5.7316
    -5.7067  -5.6277  -5.5755  -5.5347  -5.4278  -5.3604  -5.2930  -5.2359
    -5.2236  -5.2073  -5.1884  -5.1350  -5.1120  -5.0262  -4.8899  -4.8346
    -4.8235  -4.7918  -4.7306  -4.6469  -4.6336  -4.5152  -4.4679  -4.4403
    -4.4219  -4.4033  -4.3591  -4.3270  -4.2747  -4.2493  -4.2034  -4.1300
    -4.0745  -3.9834  -3.9378  -3.8559  -3.7976  -3.7675  -3.7022  -3.6596
    -3.6065  -3.5860  -3.5373  -3.5286  -3.4636  -3.4211  -3.3867  -3.3068
    -3.2919  -3.2631  -3.2158  -3.1540  -3.1268  -3.0812  -2.9916  -2.9577
    -2.9291  -2.8865  -2.8330  -2.7299  -2.6989  -2.6664  -2.6322  -2.6110
    -2.5861  -2.5320  -2.5026  -2.4430  -2.4202  -2.3893  -2.3641  -2.3172
    -2.3009  -2.2435  -2.2000  -2.1674  -2.1505  -2.1124  -2.0923  -2.0455
    -2.0076  -1.9288  -1.8896  -1.8329  -1.7320  -1.6767  -1.5895  -1.4923
    -1.4219  -1.3934  -1.3512  -1.2709  -1.2218  -1.1895  -1.0377  -1.0138
    -0.9419  -0.9174  -0.8370  -0.7930  -0.7573  -0.7347  -0.6791  -0.6286
    -0.5987  -0.5585  -0.4770  -0.3391  -0.2999  -0.2586  -0.1766  -0.1464
    -0.1401  -0.0406  -0.0296   0.0059   0.9283   1.0013   1.0593   1.1453
     1.2005   1.2342   1.2508   1.3233   1.3909   1.4482   1.4745   1.4851
     1.5262   1.5381   1.5647   1.5948   1.6079   1.6355   1.6606   1.6804
     1.7103   1.7350   1.7713   1.8129   1.8229   1.8610   1.8929   1.9157
     1.9368   1.9640   2.0014   2.0156   2.0521   2.0699

          k = 0.3333 0.1925 0.0000 (287830 PWs)   bands (ev):

   -87.0750 -87.0175 -86.9572 -86.4507 -56.1169 -56.1001 -56.0879 -56.0118
   -56.0018 -55.9725 -55.9658 -55.9524 -55.9437 -55.9357 -55.9216 -55.8487
   -55.8385 -55.8278 -55.7410 -55.7335 -53.6788 -53.4999 -53.4618 -53.4054
   -53.3846 -53.3251 -52.8090 -52.7846 -52.7294 -52.6700 -52.6336 -52.5423
   -32.2886 -32.2589 -32.2458 -32.2344 -32.2289 -32.2208 -32.2127 -32.1965
   -32.1929 -32.1783 -32.1758 -32.1614 -32.1452 -32.1420 -32.1347 -32.1225
   -32.1118 -32.0966 -32.0910 -32.0792 -32.0702 -32.0557 -32.0490 -32.0479
   -32.0329 -32.0260 -32.0187 -32.0098 -31.9933 -31.9879 -31.9830 -31.9798
   -31.9628 -31.9577 -31.9450 -31.9264 -31.9200 -31.9063 -31.9052 -31.8909
   -31.8821 -31.8793 -31.8680 -31.8238 -31.8136 -31.8050 -31.7756 -31.7657
   -16.0041 -15.7344 -15.3355 -15.1824 -14.8648 -14.7098 -14.4517 -14.2742
   -14.1526 -14.0196 -13.8438 -13.7607 -13.6020 -13.5785 -13.4584 -13.4334
   -13.3953 -13.3438 -13.3011 -13.2262 -13.2206 -13.2058 -13.1606 -13.1274
   -13.0956 -13.0461 -13.0277 -13.0177 -13.0068 -12.9990 -12.9070 -12.8994
    -7.6306  -7.2714  -7.0880  -6.7957  -6.5906  -6.5520  -6.4050  -6.2812
    -6.2482  -6.0961  -5.9940  -5.8973  -5.8410  -5.8086  -5.7559  -5.7433
    -5.6911  -5.6355  -5.5774  -5.5460  -5.4280  -5.3544  -5.2936  -5.2352
    -5.2218  -5.2082  -5.1871  -5.1395  -5.1044  -5.0286  -4.8896  -4.8342
    -4.8138  -4.7850  -4.7242  -4.6490  -4.6330  -4.5127  -4.4789  -4.4394
    -4.4191  -4.4076  -4.3604  -4.3272  -4.2813  -4.2493  -4.2033  -4.1406
    -4.0817  -3.9907  -3.9425  -3.8534  -3.7955  -3.7693  -3.7006  -3.6602
    -3.6101  -3.5825  -3.5313  -3.5170  -3.4591  -3.4190  -3.3910  -3.3052
    -3.2870  -3.2569  -3.2246  -3.1528  -3.1257  -3.0816  -3.0026  -2.9623
    -2.9277  -2.8838  -2.8288  -2.7320  -2.6915  -2.6671  -2.6255  -2.6104
    -2.5828  -2.5390  -2.5085  -2.4448  -2.4237  -2.3867  -2.3615  -2.3145
    -2.3012  -2.2372  -2.1952  -2.1645  -2.1501  -2.1036  -2.0797  -2.0383
    -2.0065  -1.9403  -1.8957  -1.8321  -1.7568  -1.7015  -1.5948  -1.4866
    -1.4202  -1.3821  -1.3397  -1.2694  -1.2076  -1.1892  -1.0418  -1.0140
    -0.9388  -0.9276  -0.8468  -0.7915  -0.7751  -0.7159  -0.6776  -0.6346
    -0.5938  -0.5587  -0.4767  -0.3324  -0.3037  -0.2555  -0.1741  -0.1549
    -0.1378  -0.0430  -0.0292   0.0057   0.9281   1.0048   1.0585   1.1446
     1.1984   1.2368   1.2487   1.3259   1.3911   1.4483   1.4737   1.4881
     1.5241   1.5408   1.5619   1.5924   1.6040   1.6355   1.6559   1.6798
     1.7116   1.7320   1.7670   1.8123   1.8237   1.8609   1.8917   1.9172
     1.9347   1.9644   2.0049   2.0144   2.0521   2.0680

     the Fermi energy is    -0.8374 ev

!    total energy              =  -12725.83502707 Ry
     Harris-Foulkes estimate   =  -12725.83502580 Ry
     estimated scf accuracy    <       0.00000086 Ry

     total all-electron energy =   -287949.897945 Ry

     The total energy is the sum of the following terms:

     one-electron contribution =  -23196.28496424 Ry
     hartree contribution      =   11633.88847459 Ry
     xc contribution           =    -644.32846011 Ry
     ewald contribution        =    8708.30658028 Ry
     one-center paw contrib.   =   -9227.40753603 Ry
     smearing contrib. (-TS)   =      -0.00912156 Ry

     total magnetization       =     9.71 Bohr mag/cell
     absolute magnetization    =    10.41 Bohr mag/cell

     convergence has been achieved in  30 iterations

     Forces acting on atoms (cartesian axes, Ry/au):

     atom    1 type  1   force =     0.00270380   -0.00606128   -0.00780152
     atom    2 type  1   force =     0.28008338    0.14808478    0.07401386
     atom    3 type  1   force =     0.07173645    0.03350463    0.08828886
     atom    4 type  1   force =    -0.13337782    0.09188988    0.07025726
     atom    5 type  2   force =    -0.00023041   -0.00773518    0.00357908
     atom    6 type  3   force =     0.00052507   -0.00196425   -0.00017775
     atom    7 type  3   force =     0.00098029    0.00616900   -0.00366584
     atom    8 type  2   force =    -0.00484829   -0.00238134    0.00095622
     atom    9 type  3   force =    -0.00403800    0.00040125   -0.00080410
     atom   10 type  3   force =     0.00081772    0.00394198   -0.00320501
     atom   11 type  2   force =     0.00068912   -0.01325238    0.00048970
     atom   12 type  3   force =     0.00415052   -0.00006348   -0.00104959
     atom   13 type  3   force =    -0.00072250    0.00417922   -0.00317308
     atom   14 type  2   force =     0.00287080   -0.00195506    0.00137613
     atom   15 type  3   force =    -0.00062429   -0.00178872   -0.00046924
     atom   16 type  3   force =    -0.00116233    0.00620825   -0.00341053
     atom   17 type  2   force =     0.00399144    0.00551330    0.00401399
     atom   18 type  3   force =    -0.00101884    0.00034577   -0.00221843
     atom   19 type  3   force =    -0.00038042    0.00442613    0.00097372
     atom   20 type  2   force =     0.00448966   -0.01886377   -0.02177225
     atom   21 type  3   force =    -0.00339500    0.00098956   -0.01178709
     atom   22 type  3   force =     0.01519880   -0.15838887    0.00171465
     atom   23 type  2   force =     0.00357436    0.01486055   -0.02105198
     atom   24 type  3   force =    -0.00049682   -0.00017986   -0.00233531
     atom   25 type  3   force =     0.00375453    0.18941706   -0.01147484
     atom   26 type  2   force =    -0.01953835    0.01055328   -0.01866990
     atom   27 type  3   force =    -0.00557408   -0.00310495   -0.00382437
     atom   28 type  3   force =     0.01051373    0.17284850   -0.00081332
     atom   29 type  2   force =     0.02143251    0.00636386   -0.01556076
     atom   30 type  3   force =    -0.00194379    0.00544005   -0.00117694
     atom   31 type  3   force =    -0.00182972    0.00108765    0.00292575
     atom   32 type  2   force =    -0.00534147    0.01500393   -0.02332935
     atom   33 type  3   force =     0.00408010   -0.00338715   -0.00460926
     atom   34 type  3   force =    -0.00276279    0.17673399    0.00050934
     atom   35 type  2   force =    -0.00256397    0.00432266    0.00367668
     atom   36 type  3   force =    -0.00051974    0.00379497   -0.00074022
     atom   37 type  3   force =    -0.00033289   -0.00059601   -0.00359189
     atom   38 type  2   force =     0.00338949   -0.02225084   -0.01311670
     atom   39 type  3   force =     0.00253593    0.00115953   -0.01219110
     atom   40 type  3   force =    -0.14614075   -0.17538449   -0.00756472
     atom   41 type  2   force =     0.00144217    0.00273860   -0.00047789
     atom   42 type  3   force =    -0.00039567   -0.00020348   -0.00648309
     atom   43 type  3   force =    -0.36263329   -0.28404208   -0.02471331
     atom   44 type  2   force =    -0.00234785    0.00220811    0.00464067
     atom   45 type  3   force =     0.00040218    0.00010148   -0.00246380
     atom   46 type  3   force =     0.00003313    0.00450564    0.00129196
     atom   47 type  2   force =     0.00247491    0.00175945    0.00510072
     atom   48 type  3   force =     0.00019124    0.00428887   -0.00307263
     atom   49 type  3   force =    -0.00046075   -0.00058091   -0.00027535
     atom   50 type  2   force =     0.00251228   -0.02386363   -0.01594628
     atom   51 type  3   force =     0.00002434   -0.00070345   -0.00718564
     atom   52 type  3   force =     0.25808189   -0.19609078   -0.00360553

     Total force =     0.806579     Total SCF correction =     0.002704

     BFGS Geometry Optimization

     number of scf cycles    =   1
     number of bfgs steps    =   0

     energy   new            =  -12725.8350270728 Ry

     new trust radius        =       0.4612955159 bohr
     new conv_thr            =       0.0000010000 Ry


ATOMIC_POSITIONS (crystal)
Fe            0.3333027865        0.6663979752        0.1604081059
Fe            0.5940346993        0.6732311462        0.1622401929
Fe            0.8334965942        0.6681519005        0.1625598521
Fe            0.0769162999        0.6707400713        0.1621560718
Nb           -0.0001802924       -0.0003428942        0.0712442661
Se            0.1671442066        0.0834967195        0.0001651456
Se            0.1666155299        0.0834940476        0.1425484471
Nb            0.2522108387        0.0010214743        0.0717673737
Se            0.4160678010        0.0824648033       -0.0011582722
Se            0.4184143978        0.0886532468        0.1425092683
Nb            0.5028675458        0.0056821806        0.0714151439
Se            0.6663910235        0.0824442022       -0.0011637693
Se            0.6702477637        0.0886637635        0.1425099834
Nb            0.7487441675        0.0010403709        0.0717767766
Se            0.9163525942        0.0835045003        0.0001586183
Se            0.9168724001        0.0834957878        0.1425541642
Nb            0.7483021345        0.2522176984        0.0694502182
Se            0.9175215343        0.3337822367       -0.0011899431
Se            0.9116049971        0.3300133368        0.1426028423
Nb            0.7477809530        0.4952171862        0.0688727883
Se            0.9174445825        0.5838299393       -0.0014042136
Se            0.9085943577        0.5746831160        0.1426194340
Nb            0.7491438885        0.7482090094        0.0712745453
Se            0.9163931474        0.8328244411        0.0001168316
Se            0.9211219091        0.8419555428        0.1423735805
Nb            0.5001684527        0.7508101303        0.0774971180
Se            0.6631300142        0.8315687712        0.0026249920
Se            0.6758303589        0.8434600419        0.1448722843
Nb            0.2506215389        0.7506244166        0.0775667408
Se            0.4155601370        0.8312695182        0.0058137909
Se            0.4278146489        0.8557697848        0.1502641072
Nb           -0.0009995411        0.7482153650        0.0712235483
Se            0.1683751500        0.8315562612        0.0026074162
Se            0.1680133669        0.8436322827        0.1449019026
Nb            0.5039439766        0.2521649182        0.0694426648
Se            0.6667308279        0.3335015610       -0.0037687867
Se            0.6666406767        0.3333069122        0.1423691830
Nb            0.5027717663        0.4958788144        0.0711104565
Se            0.6663561462        0.5838374738       -0.0014132605
Se            0.6606851691        0.5739297135        0.1424116417
Nb            0.2497737532        0.4994367749        0.0779044907
Se            0.4154944830        0.5844767969        0.0056949705
Se            0.4076435387        0.5595478583        0.1496451874
Nb            0.2524085545        0.2514205937        0.0718498792
Se            0.4162316162        0.3337714077       -0.0011954376
Se            0.4183967706        0.3300168614        0.1426099688
Nb           -0.0009930272        0.2514007049        0.0718601811
Se            0.1683959918        0.3367772982        0.0026418258
Se            0.1641716292        0.3283786318        0.1448843311
Nb           -0.0067021289        0.4958073206        0.0710470939
Se            0.1689569777        0.5844546336        0.0056792385
Se            0.1498399748        0.5634466686        0.1501178527



     Writing output data file ./tmp/fe.save/
     NEW-OLD atomic charge density approx. for the potential

     total cpu time spent up to now is     3130.8 secs

     Self-consistent Calculation

     iteration #  1     ecut=    75.00 Ry     beta= 0.70
     Davidson diagonalization with overlap
     ethr =  1.00E-06,  avg # of iterations = 15.1

     total cpu time spent up to now is     3433.0 secs

     total energy              =  -12725.96616948 Ry
     Harris-Foulkes estimate   =  -12726.40921903 Ry
     estimated scf accuracy    <       0.97106261 Ry

     total magnetization       =    11.14 Bohr mag/cell
     absolute magnetization    =    11.75 Bohr mag/cell

     iteration #  2     ecut=    75.00 Ry     beta= 0.70
     Davidson diagonalization with overlap
     ethr =  2.09E-04,  avg # of iterations =  3.0

     total cpu time spent up to now is     3541.1 secs

     total energy              =  -12725.83058864 Ry
     Harris-Foulkes estimate   =  -12726.42182781 Ry
     estimated scf accuracy    <       9.29839396 Ry

     total magnetization       =     9.13 Bohr mag/cell
     absolute magnetization    =     9.63 Bohr mag/cell

     iteration #  3     ecut=    75.00 Ry     beta= 0.70
     Davidson diagonalization with overlap
     ethr =  2.09E-04,  avg # of iterations =  2.9

     total cpu time spent up to now is     3641.1 secs

     total energy              =  -12726.12340551 Ry
     Harris-Foulkes estimate   =  -12726.12550430 Ry
     estimated scf accuracy    <       0.16782825 Ry

     total magnetization       =    11.74 Bohr mag/cell
     absolute magnetization    =    12.30 Bohr mag/cell

     iteration #  4     ecut=    75.00 Ry     beta= 0.70
     Davidson diagonalization with overlap
     ethr =  3.62E-05,  avg # of iterations =  2.5

     total cpu time spent up to now is     3738.0 secs

     total energy              =  -12726.13028656 Ry
     Harris-Foulkes estimate   =  -12726.13359790 Ry
     estimated scf accuracy    <       0.14993673 Ry

     total magnetization       =    12.43 Bohr mag/cell
     absolute magnetization    =    12.96 Bohr mag/cell

     iteration #  5     ecut=    75.00 Ry     beta= 0.70
     Davidson diagonalization with overlap
     ethr =  3.23E-05,  avg # of iterations =  1.0

     total cpu time spent up to now is     3825.7 secs

     total energy              =  -12726.13440663 Ry
     Harris-Foulkes estimate   =  -12726.13500429 Ry
     estimated scf accuracy    <       0.08297473 Ry

     total magnetization       =    12.68 Bohr mag/cell
     absolute magnetization    =    13.21 Bohr mag/cell

     iteration #  6     ecut=    75.00 Ry     beta= 0.70
     Davidson diagonalization with overlap
     ethr =  1.79E-05,  avg # of iterations =  1.0

     total cpu time spent up to now is     3913.1 secs

     total energy              =  -12726.13721223 Ry
     Harris-Foulkes estimate   =  -12726.13624467 Ry
     estimated scf accuracy    <       0.05936109 Ry

     total magnetization       =    12.87 Bohr mag/cell
     absolute magnetization    =    13.40 Bohr mag/cell

     iteration #  7     ecut=    75.00 Ry     beta= 0.70
     Davidson diagonalization with overlap
     ethr =  1.28E-05,  avg # of iterations =  1.0

     total cpu time spent up to now is     4004.1 secs

     total energy              =  -12726.14009566 Ry
     Harris-Foulkes estimate   =  -12726.13979783 Ry
     estimated scf accuracy    <       0.02256411 Ry

     total magnetization       =    13.54 Bohr mag/cell
     absolute magnetization    =    14.07 Bohr mag/cell

     iteration #  8     ecut=    75.00 Ry     beta= 0.70
     Davidson diagonalization with overlap
     ethr =  4.86E-06,  avg # of iterations =  4.6

     total cpu time spent up to now is     4106.8 secs

     total energy              =  -12726.14260778 Ry
     Harris-Foulkes estimate   =  -12726.14288571 Ry
     estimated scf accuracy    <       0.02113767 Ry

     total magnetization       =    14.14 Bohr mag/cell
     absolute magnetization    =    14.68 Bohr mag/cell

     iteration #  9     ecut=    75.00 Ry     beta= 0.70
     Davidson diagonalization with overlap
     ethr =  4.56E-06,  avg # of iterations =  1.0

     total cpu time spent up to now is     4193.2 secs

     total energy              =  -12726.14316836 Ry
     Harris-Foulkes estimate   =  -12726.14316620 Ry
     estimated scf accuracy    <       0.00446658 Ry

     total magnetization       =    14.33 Bohr mag/cell
     absolute magnetization    =    14.89 Bohr mag/cell

     iteration # 10     ecut=    75.00 Ry     beta= 0.70
     Davidson diagonalization with overlap
     c_bands:  1 eigenvalues not converged
     ethr =  9.63E-07,  avg # of iterations =  7.6

     total cpu time spent up to now is     4310.5 secs

     total energy              =  -12726.14368426 Ry
     Harris-Foulkes estimate   =  -12726.14363968 Ry
     estimated scf accuracy    <       0.00139038 Ry

     total magnetization       =    14.52 Bohr mag/cell
     absolute magnetization    =    15.11 Bohr mag/cell

     iteration # 11     ecut=    75.00 Ry     beta= 0.70
     Davidson diagonalization with overlap
     ethr =  3.00E-07,  avg # of iterations =  3.5

     total cpu time spent up to now is     4411.5 secs

     total energy              =  -12726.14376221 Ry
     Harris-Foulkes estimate   =  -12726.14381800 Ry
     estimated scf accuracy    <       0.00076611 Ry

     total magnetization       =    14.62 Bohr mag/cell
     absolute magnetization    =    15.24 Bohr mag/cell

     iteration # 12     ecut=    75.00 Ry     beta= 0.70
     Davidson diagonalization with overlap
     ethr =  1.65E-07,  avg # of iterations =  3.0

     total cpu time spent up to now is     4512.6 secs

     total energy              =  -12726.14387718 Ry
     Harris-Foulkes estimate   =  -12726.14389959 Ry
     estimated scf accuracy    <       0.00027845 Ry

     total magnetization       =    14.68 Bohr mag/cell
     absolute magnetization    =    15.37 Bohr mag/cell

     iteration # 13     ecut=    75.00 Ry     beta= 0.70
     Davidson diagonalization with overlap
     ethr =  6.00E-08,  avg # of iterations =  2.3

     total cpu time spent up to now is     4605.1 secs

     total energy              =  -12726.14391258 Ry
     Harris-Foulkes estimate   =  -12726.14390286 Ry
     estimated scf accuracy    <       0.00005975 Ry

     total magnetization       =    14.62 Bohr mag/cell
     absolute magnetization    =    15.32 Bohr mag/cell

     iteration # 14     ecut=    75.00 Ry     beta= 0.70
     Davidson diagonalization with overlap
     ethr =  1.29E-08,  avg # of iterations =  5.1

     total cpu time spent up to now is     4716.1 secs

     total energy              =  -12726.14392891 Ry
     Harris-Foulkes estimate   =  -12726.14392658 Ry
     estimated scf accuracy    <       0.00004572 Ry

     total magnetization       =    14.63 Bohr mag/cell
     absolute magnetization    =    15.36 Bohr mag/cell

     iteration # 15     ecut=    75.00 Ry     beta= 0.70
     Davidson diagonalization with overlap
     ethr =  9.85E-09,  avg # of iterations =  2.5

     total cpu time spent up to now is     4817.2 secs

     total energy              =  -12726.14394677 Ry
     Harris-Foulkes estimate   =  -12726.14394298 Ry
     estimated scf accuracy    <       0.00001246 Ry

     total magnetization       =    14.65 Bohr mag/cell
     absolute magnetization    =    15.42 Bohr mag/cell

     iteration # 16     ecut=    75.00 Ry     beta= 0.70
     Davidson diagonalization with overlap
     ethr =  2.69E-09,  avg # of iterations =  3.0

     total cpu time spent up to now is     4926.0 secs

     total energy              =  -12726.14395689 Ry
     Harris-Foulkes estimate   =  -12726.14395257 Ry
     estimated scf accuracy    <       0.00000473 Ry

     total magnetization       =    14.64 Bohr mag/cell
     absolute magnetization    =    15.44 Bohr mag/cell

     iteration # 17     ecut=    75.00 Ry     beta= 0.70
     Davidson diagonalization with overlap
     ethr =  1.02E-09,  avg # of iterations =  2.8

     total cpu time spent up to now is     5037.4 secs

     total energy              =  -12726.14395804 Ry
     Harris-Foulkes estimate   =  -12726.14395933 Ry
     estimated scf accuracy    <       0.00000194 Ry

     total magnetization       =    14.61 Bohr mag/cell
     absolute magnetization    =    15.44 Bohr mag/cell

     iteration # 18     ecut=    75.00 Ry     beta= 0.70
     Davidson diagonalization with overlap
     ethr =  4.17E-10,  avg # of iterations =  4.0

     total cpu time spent up to now is     5185.9 secs

     total energy              =  -12726.14397272 Ry
     Harris-Foulkes estimate   =  -12726.14397154 Ry
     estimated scf accuracy    <       0.00000194 Ry

     total magnetization       =    14.57 Bohr mag/cell
     absolute magnetization    =    15.46 Bohr mag/cell

     iteration # 19     ecut=    75.00 Ry     beta= 0.70
     Davidson diagonalization with overlap
     ethr =  4.17E-10,  avg # of iterations =  2.0
 
     Magnetic moment per site:
     atom:    1    charge:   12.9245    magn:    2.1918    constr:    0.0000
     atom:    2    charge:   12.7752    magn:    1.9847    constr:    0.0000
     atom:    3    charge:   12.9665    magn:    1.9437    constr:    0.0000
     atom:    4    charge:   12.9219    magn:    1.9906    constr:    0.0000
     atom:    5    charge:   10.0707    magn:    0.0369    constr:    0.0000
     atom:    6    charge:    1.8077    magn:    0.0029    constr:    0.0000
     atom:    7    charge:    1.8123    magn:    0.0037    constr:    0.0000
     atom:    8    charge:   10.0675    magn:    0.0595    constr:    0.0000
     atom:    9    charge:    1.8085    magn:    0.0028    constr:    0.0000
     atom:   10    charge:    1.8128    magn:    0.0032    constr:    0.0000
     atom:   11    charge:   10.0673    magn:    0.0904    constr:    0.0000
     atom:   12    charge:    1.8085    magn:    0.0027    constr:    0.0000
     atom:   13    charge:    1.8128    magn:    0.0033    constr:    0.0000
     atom:   14    charge:   10.0677    magn:    0.0569    constr:    0.0000
     atom:   15    charge:    1.8077    magn:    0.0029    constr:    0.0000
     atom:   16    charge:    1.8123    magn:    0.0038    constr:    0.0000
     atom:   17    charge:   10.0582    magn:    0.0109    constr:    0.0000
     atom:   18    charge:    1.8090    magn:    0.0057    constr:    0.0000
     atom:   19    charge:    1.8141    magn:    0.0004    constr:    0.0000
     atom:   20    charge:   10.0895    magn:    0.2552    constr:    0.0000
     atom:   21    charge:    1.8088    magn:    0.0009    constr:    0.0000
     atom:   22    charge:    1.8750    magn:    0.0147    constr:    0.0000
     atom:   23    charge:   10.0701    magn:    0.2527    constr:    0.0000
     atom:   24    charge:    1.8090    magn:    0.0066    constr:    0.0000
     atom:   25    charge:    1.8336    magn:    0.0151    constr:    0.0000
     atom:   26    charge:   10.0423    magn:    0.2631    constr:    0.0000
     atom:   27    charge:    1.8089    magn:    0.0065    constr:    0.0000
     atom:   28    charge:    1.8444    magn:    0.0164    constr:    0.0000
     atom:   29    charge:   10.0440    magn:    0.2708    constr:    0.0000
     atom:   30    charge:    1.8107    magn:    0.0054    constr:    0.0000
     atom:   31    charge:    1.8145    magn:    0.0161    constr:    0.0000
     atom:   32    charge:   10.0697    magn:    0.2514    constr:    0.0000
     atom:   33    charge:    1.8089    magn:    0.0068    constr:    0.0000
     atom:   34    charge:    1.8382    magn:    0.0147    constr:    0.0000
     atom:   35    charge:   10.0583    magn:    0.0047    constr:    0.0000
     atom:   36    charge:    1.8094    magn:    0.0063    constr:    0.0000
     atom:   37    charge:    1.8135    magn:    0.0014    constr:    0.0000
     atom:   38    charge:   10.0961    magn:    0.2526    constr:    0.0000
     atom:   39    charge:    1.8087    magn:    0.0011    constr:    0.0000
     atom:   40    charge:    1.8597    magn:    0.0154    constr:    0.0000
     atom:   41    charge:   10.0946    magn:    0.2455    constr:    0.0000
     atom:   42    charge:    1.8093    magn:    0.0030    constr:    0.0000
     atom:   43    charge:    1.7571    magn:    0.0159    constr:    0.0000
     atom:   44    charge:   10.0480    magn:    0.0114    constr:    0.0000
     atom:   45    charge:    1.8089    magn:    0.0057    constr:    0.0000
     atom:   46    charge:    1.8143    magn:    0.0011    constr:    0.0000
     atom:   47    charge:   10.0480    magn:    0.0147    constr:    0.0000
     atom:   48    charge:    1.8088    magn:    0.0059    constr:    0.0000
     atom:   49    charge:    1.8132    magn:   -0.0003    constr:    0.0000
     atom:   50    charge:   10.0874    magn:    0.2643    constr:    0.0000
     atom:   51    charge:    1.8094    magn:    0.0032    constr:    0.0000
     atom:   52    charge:    1.8048    magn:    0.0168    constr:    0.0000

     total cpu time spent up to now is     5270.0 secs

     End of self-consistent calculation

 ------ SPIN UP ------------


          k = 0.0000 0.0000 0.0000 (287679 PWs)   bands (ev):

   -89.2135 -89.1172 -89.0821 -89.0103 -56.2209 -56.2143 -56.1778 -56.1697
   -56.0712 -56.0558 -56.0427 -56.0061 -55.9191 -55.9112 -55.9088 -55.8714
   -55.8646 -55.8594 -55.7522 -55.7444 -55.4344 -55.4091 -55.3713 -55.3231
   -55.2770 -55.2413 -55.2137 -55.1657 -55.1155 -55.0946 -55.0651 -55.0446
   -32.4277 -32.3636 -32.3508 -32.3458 -32.3351 -32.3301 -32.3282 -32.3199
   -32.3105 -32.2988 -32.2920 -32.2547 -32.2452 -32.2417 -32.2328 -32.2254
   -32.2154 -32.1701 -32.1640 -32.1485 -32.1435 -32.1316 -32.1114 -32.1020
   -32.0998 -32.0874 -32.0852 -32.0421 -32.0343 -32.0154 -32.0115 -32.0072
   -31.9949 -31.9762 -31.9561 -31.9393 -31.9376 -31.9322 -31.9249 -31.9192
   -31.9169 -31.9057 -31.8929 -31.8393 -31.8253 -31.8124 -31.8086 -31.7801
   -15.8966 -15.5361 -15.2859 -14.9434 -14.9169 -14.6762 -14.5221 -14.2656
   -14.1476 -13.8319 -13.7959 -13.7767 -13.6365 -13.6212 -13.6103 -13.4112
   -13.3156 -13.3051 -13.2223 -13.1722 -13.1637 -13.1543 -13.1115 -13.1054
   -13.0840 -13.0621 -13.0588 -13.0036 -12.9693 -12.9433 -12.9342 -12.8943
    -7.7686  -7.2017  -7.0823  -6.9202  -6.7439  -6.6170  -6.5513  -6.4801
    -6.2622  -6.1679  -6.1180  -6.0258  -5.9604  -5.9357  -5.8944  -5.8799
    -5.7934  -5.7476  -5.6013  -5.5449  -5.5207  -5.4542  -5.3213  -5.3075
    -5.3035  -5.2600  -5.2148  -5.1452  -5.1256  -5.1071  -4.9872  -4.9773
    -4.9011  -4.8113  -4.7688  -4.7300  -4.6938  -4.5791  -4.5741  -4.4857
    -4.4115  -4.3929  -4.3762  -4.3491  -4.2968  -4.2140  -4.1783  -4.1503
    -4.1382  -4.1265  -4.1028  -4.0196  -3.8569  -3.8305  -3.8214  -3.8123
    -3.7588  -3.7505  -3.7439  -3.6716  -3.6490  -3.5655  -3.5607  -3.5550
    -3.5505  -3.4888  -3.4747  -3.4296  -3.4170  -3.3439  -3.2990  -3.2785
    -3.2249  -3.2132  -3.1853  -3.1429  -3.1163  -3.0298  -3.0142  -2.9421
    -2.9245  -2.8759  -2.7822  -2.6494  -2.6415  -2.6011  -2.5842  -2.5723
    -2.5582  -2.4866  -2.4475  -2.3900  -2.3838  -2.3380  -2.3097  -2.2902
    -2.2129  -2.1942  -2.1664  -2.1441  -2.1383  -2.1333  -2.1184  -2.1007
    -2.0891  -2.0136  -1.9047  -1.7752  -1.7576  -1.7038  -1.6861  -1.6698
    -1.6187  -1.4964  -1.4948  -1.2879  -1.2750  -1.1896  -1.1765  -1.1656
    -1.0828  -1.0724  -1.0639  -1.0336  -0.9966  -0.9327  -0.8960  -0.8123
    -0.8077  -0.7903  -0.7674  -0.6131   0.6545   0.6598   0.8507   0.9379
[...]
    -2.4573  -2.4387  -2.4196  -2.4099  -2.3712  -2.3094  -2.2970  -2.2836
    -2.2675  -2.2468  -2.2042  -2.1390  -2.1049  -2.0488  -2.0416  -2.0323
    -1.9219  -1.8997  -1.7983  -1.7384  -1.5928  -1.4882  -1.4193  -1.3676
    -1.3259  -1.2201  -1.1782  -1.1293  -0.9774  -0.9320  -0.9226  -0.9055
    -0.8898  -0.7888  -0.7200  -0.6743  -0.6376  -0.6171  -0.6021  -0.4891
    -0.4007  -0.2582  -0.2193  -0.1189   0.0099   0.0822   0.1094   0.1426
     0.1643   0.2205   0.2506   0.2834   0.5549   0.6474   0.8678   0.9726
     1.0998   1.1682   1.2122   1.2258   1.3909   1.4135   1.4270   1.4497
     1.4783   1.4862   1.5542   1.5595   1.5971   1.6103   1.6211   1.6423
     1.6749   1.7020   1.7119   1.7446   1.7757   1.7919   1.8184   1.8353
     1.8842   1.9027   1.9103   1.9160   1.9639   2.0170

          k =-0.3333 0.1925 0.0000 (287830 PWs)   bands (ev):

   -86.3856 -86.3826 -86.3756 -86.3591 -56.0338 -56.0309 -56.0251 -56.0196
   -55.9441 -55.9284 -55.9194 -55.8986 -55.8558 -55.8462 -55.8435 -55.8375
   -55.8340 -55.8315 -55.8310 -55.8118 -52.6561 -52.6527 -52.6469 -52.6312
   -52.5382 -52.5167 -52.5099 -52.4731 -52.4440 -52.4430 -52.4295 -52.4082
   -32.1807 -32.1706 -32.1658 -32.1529 -32.1431 -32.1384 -32.1335 -32.1304
   -32.1181 -32.1125 -32.1005 -32.0967 -32.0864 -32.0809 -32.0733 -32.0582
   -32.0426 -32.0273 -32.0249 -32.0151 -32.0097 -31.9999 -31.9964 -31.9871
   -31.9798 -31.9779 -31.9695 -31.9640 -31.9565 -31.9551 -31.9496 -31.9405
   -31.9328 -31.9292 -31.9274 -31.9242 -31.9212 -31.9169 -31.9099 -31.8973
   -31.8952 -31.8911 -31.8813 -31.8539 -31.8495 -31.8416 -31.8301 -31.8230
   -15.0347 -14.8658 -14.5870 -14.4988 -14.4225 -14.2296 -14.0856 -14.0728
   -13.9479 -13.9131 -13.8852 -13.7625 -13.5708 -13.5375 -13.4418 -13.4359
   -13.3684 -13.3537 -13.2634 -13.2472 -13.1893 -13.1369 -13.1149 -13.0892
   -13.0783 -13.0501 -12.9830 -12.9802 -12.9720 -12.9710 -12.8841 -12.8734
    -6.8026  -6.4745  -6.4390  -6.1941  -6.1410  -5.9680  -5.9290  -5.8558
    -5.7920  -5.7023  -5.6928  -5.6647  -5.5731  -5.4892  -5.4670  -5.4467
    -5.4110  -5.3234  -5.3184  -5.2929  -5.2676  -5.1982  -5.1173  -5.0367
    -5.0259  -4.9278  -4.8432  -4.8242  -4.7974  -4.6828  -4.6550  -4.6227
    -4.6088  -4.5990  -4.5306  -4.5043  -4.4127  -4.3544  -4.3449  -4.3247
    -4.3049  -4.2787  -4.1693  -4.1496  -4.1441  -4.0986  -4.0342  -3.9337
    -3.9099  -3.8160  -3.7410  -3.6704  -3.6677  -3.6509  -3.5084  -3.4981
    -3.4850  -3.4695  -3.3441  -3.3375  -3.3243  -3.2339  -3.2082  -3.1731
    -3.1411  -3.0987  -3.0688  -3.0048  -2.9969  -2.9897  -2.9079  -2.8572
    -2.7863  -2.7659  -2.7142  -2.6130  -2.5904  -2.5831  -2.5529  -2.5406
    -2.5022  -2.4336  -2.4200  -2.3727  -2.3463  -2.3030  -2.2862  -2.2775
    -2.2363  -2.1585  -2.1407  -2.1119  -2.1049  -2.0405  -2.0151  -1.9856
    -1.9437  -1.8584  -1.8466  -1.7721  -1.6013  -1.5207  -1.5039  -1.3541
    -1.2604  -1.2420  -1.2079  -1.1006  -1.0141  -0.9733  -0.9239  -0.9071
    -0.8403  -0.8083  -0.7719  -0.6999  -0.6386  -0.6017  -0.5854  -0.5189
    -0.3825  -0.2519  -0.1985  -0.1345   0.0070   0.0482   0.1151   0.1313
     0.1532   0.2154   0.2495   0.2793   0.5573   0.6637   0.9692   0.9902
     1.0357   1.0981   1.2429   1.3075   1.3683   1.3915   1.4840   1.5001
     1.5255   1.5375   1.5743   1.5773   1.5916   1.6004   1.6445   1.6650
     1.6793   1.7073   1.7210   1.7344   1.7422   1.8206   1.8452   1.8824
     1.9061   1.9232   1.9549   1.9655   2.0047   2.0265

          k = 0.3333 0.1925 0.0000 (287830 PWs)   bands (ev):

   -86.3856 -86.3826 -86.3756 -86.3591 -56.0338 -56.0309 -56.0251 -56.0196
   -55.9441 -55.9284 -55.9194 -55.8986 -55.8558 -55.8462 -55.8435 -55.8375
   -55.8340 -55.8315 -55.8310 -55.8118 -52.6561 -52.6527 -52.6469 -52.6312
   -52.5382 -52.5167 -52.5099 -52.4731 -52.4440 -52.4430 -52.4295 -52.4082
   -32.1807 -32.1707 -32.1658 -32.1528 -32.1427 -32.1384 -32.1337 -32.1303
   -32.1180 -32.1124 -32.1015 -32.0939 -32.0884 -32.0805 -32.0745 -32.0575
   -32.0429 -32.0277 -32.0249 -32.0147 -32.0085 -32.0007 -31.9963 -31.9870
   -31.9809 -31.9770 -31.9697 -31.9639 -31.9565 -31.9549 -31.9494 -31.9405
   -31.9328 -31.9290 -31.9278 -31.9241 -31.9213 -31.9169 -31.9095 -31.8976
   -31.8952 -31.8911 -31.8813 -31.8539 -31.8495 -31.8416 -31.8299 -31.8230
   -15.0346 -14.8661 -14.5867 -14.4987 -14.4226 -14.2297 -14.0856 -14.0727
   -13.9481 -13.9131 -13.8852 -13.7626 -13.5708 -13.5375 -13.4417 -13.4358
   -13.3683 -13.3539 -13.2632 -13.2473 -13.1893 -13.1370 -13.1148 -13.0900
   -13.0776 -13.0501 -12.9835 -12.9802 -12.9716 -12.9708 -12.8841 -12.8734
    -6.8025  -6.4741  -6.4396  -6.1950  -6.1413  -5.9679  -5.9290  -5.8559
    -5.7909  -5.7014  -5.6921  -5.6648  -5.5727  -5.4895  -5.4666  -5.4471
    -5.4111  -5.3226  -5.3193  -5.2932  -5.2680  -5.1983  -5.1173  -5.0346
    -5.0277  -4.9275  -4.8435  -4.8250  -4.7962  -4.6824  -4.6562  -4.6235
    -4.6078  -4.5995  -4.5315  -4.5044  -4.4128  -4.3546  -4.3449  -4.3249
    -4.3044  -4.2773  -4.1687  -4.1516  -4.1460  -4.0966  -4.0337  -3.9347
    -3.9096  -3.8157  -3.7409  -3.6702  -3.6673  -3.6505  -3.5089  -3.4986
    -3.4859  -3.4688  -3.3440  -3.3376  -3.3217  -3.2332  -3.2079  -3.1746
    -3.1416  -3.0988  -3.0691  -3.0053  -2.9954  -2.9899  -2.9072  -2.8570
    -2.7853  -2.7681  -2.7134  -2.6097  -2.5962  -2.5825  -2.5535  -2.5398
    -2.5026  -2.4337  -2.4197  -2.3707  -2.3484  -2.3025  -2.2892  -2.2778
    -2.2344  -2.1586  -2.1398  -2.1132  -2.1046  -2.0402  -2.0149  -1.9846
    -1.9429  -1.8578  -1.8456  -1.7725  -1.6024  -1.5227  -1.5044  -1.3533
    -1.2552  -1.2442  -1.2123  -1.0948  -1.0145  -0.9771  -0.9201  -0.9114
    -0.8365  -0.8121  -0.7767  -0.6926  -0.6365  -0.6011  -0.5842  -0.5248
    -0.3815  -0.2527  -0.1990  -0.1334   0.0096   0.0466   0.1143   0.1342
     0.1497   0.2156   0.2503   0.2790   0.5574   0.6637   0.9731   0.9860
     1.0350   1.0990   1.2438   1.3066   1.3677   1.3913   1.4852   1.5002
     1.5272   1.5366   1.5739   1.5774   1.5900   1.6015   1.6451   1.6657
     1.6783   1.7046   1.7251   1.7301   1.7422   1.8195   1.8455   1.8829
     1.9071   1.9234   1.9561   1.9626   2.0051   2.0242

     the Fermi energy is    -0.7988 ev

!    total energy              =  -12726.38634309 Ry
     Harris-Foulkes estimate   =  -12726.38634340 Ry
     estimated scf accuracy    <          6.8E-09 Ry

     total all-electron energy =   -287950.449261 Ry

     The total energy is the sum of the following terms:

     one-electron contribution =  -22951.33274433 Ry
     hartree contribution      =   11512.22519616 Ry
     xc contribution           =    -643.12907252 Ry
     ewald contribution        =    8583.15192133 Ry
     one-center paw contrib.   =   -9227.29555719 Ry
     smearing contrib. (-TS)   =      -0.00608655 Ry

     total magnetization       =    12.96 Bohr mag/cell
     absolute magnetization    =    15.87 Bohr mag/cell

     convergence has been achieved in  15 iterations

     Forces acting on atoms (cartesian axes, Ry/au):

     atom    1 type  1   force =     0.00181265   -0.00070888   -0.00045520
     atom    2 type  1   force =    -0.00045795   -0.00120836   -0.00194540
     atom    3 type  1   force =     0.00274281   -0.00137387   -0.00234209
     atom    4 type  1   force =    -0.00212982   -0.00108983   -0.00181338
     atom    5 type  2   force =     0.00039297    0.00060783    0.00098861
     atom    6 type  3   force =     0.00025506   -0.00005780    0.00249511
     atom    7 type  3   force =    -0.00078970    0.00015969    0.00008645
     atom    8 type  2   force =     0.00045815    0.00118691    0.00013287
     atom    9 type  3   force =    -0.00099630    0.00010521    0.00213950
     atom   10 type  3   force =    -0.00029634   -0.00036307   -0.00097688
     atom   11 type  2   force =     0.00009685   -0.00188324    0.00253651
     atom   12 type  3   force =     0.00119825    0.00004648    0.00218182
     atom   13 type  3   force =     0.00013936   -0.00041266   -0.00068197
     atom   14 type  2   force =    -0.00046408    0.00154695   -0.00012438
     atom   15 type  3   force =    -0.00046141   -0.00035478    0.00256839
     atom   16 type  3   force =     0.00065729   -0.00000130    0.00009485
     atom   17 type  2   force =     0.00087243    0.00074946   -0.00020201
     atom   18 type  3   force =     0.00003394   -0.00062060   -0.00175920
     atom   19 type  3   force =     0.00042432    0.00027701   -0.00055272
     atom   20 type  2   force =    -0.00009410   -0.00024576   -0.00131445
     atom   21 type  3   force =     0.00013452   -0.00121885    0.00057211
     atom   22 type  3   force =     0.00033525   -0.00108537    0.00284799
     atom   23 type  2   force =    -0.00078270    0.00083177    0.00066227
     atom   24 type  3   force =    -0.00042642    0.00249161   -0.00243686
     atom   25 type  3   force =    -0.00007681   -0.00052337   -0.00162625
     atom   26 type  2   force =    -0.00015421    0.00059198    0.00067248
     atom   27 type  3   force =     0.00000856    0.00212886   -0.00120170
     atom   28 type  3   force =    -0.00054597   -0.00222376   -0.00080840
     atom   29 type  2   force =    -0.00018842   -0.00008318    0.00084094
     atom   30 type  3   force =    -0.00030046    0.00299902   -0.00144666
     atom   31 type  3   force =     0.00022752   -0.00054136   -0.00172274
     atom   32 type  2   force =     0.00075967    0.00188947   -0.00035287
     atom   33 type  3   force =     0.00050538    0.00244357   -0.00135477
     atom   34 type  3   force =     0.00104795   -0.00219177   -0.00085294
     atom   35 type  2   force =    -0.00054264    0.00065968   -0.00034865
     atom   36 type  3   force =    -0.00010267   -0.00081852   -0.00133063
     atom   37 type  3   force =    -0.00034481   -0.00052795    0.00088213
     atom   38 type  2   force =    -0.00137052    0.00002809    0.00099553
     atom   39 type  3   force =     0.00085597   -0.00136315    0.00030171
     atom   40 type  3   force =    -0.00050291    0.00098768    0.00186535
     atom   41 type  2   force =    -0.00036295   -0.00048685   -0.00022940
     atom   42 type  3   force =     0.00015357   -0.00145089    0.00110049
     atom   43 type  3   force =    -0.00030833   -0.00084104    0.00197659
     atom   44 type  2   force =    -0.00052306    0.00056222    0.00086341
     atom   45 type  3   force =    -0.00025057   -0.00063286   -0.00180311
     atom   46 type  3   force =    -0.00009256    0.00076359   -0.00013329
     atom   47 type  2   force =     0.00083445    0.00070361    0.00085727
     atom   48 type  3   force =    -0.00015927    0.00042162   -0.00064786
     atom   49 type  3   force =    -0.00020215    0.00078547   -0.00166372
     atom   50 type  2   force =     0.00071819   -0.00019685    0.00037693
     atom   51 type  3   force =     0.00035015   -0.00107562    0.00095787
     atom   52 type  3   force =    -0.00208815    0.00061373    0.00113030

     Total force =     0.014252     Total SCF correction =     0.000224

     number of scf cycles    =  30
     number of bfgs steps    =  29

     energy   old            =  -12726.3861141824 Ry
     energy   new            =  -12726.3863430937 Ry

     CASE: energy  _new < energy  _old

     new trust radius        =       0.0610040184 bohr
     new conv_thr            =       0.0000000229 Ry


ATOMIC_POSITIONS (crystal)
Fe            0.3392549277        0.6708204394        0.1605612729
Fe            0.5890223829        0.6712877412        0.1607514098
Fe            0.8385383768        0.6716959038        0.1605757749
Fe            0.0756110298        0.6725878621        0.1616746091
Nb            0.0018818640        0.0040136120        0.0653694018
Se            0.1671335687        0.0849285886       -0.0075597899
Se            0.1699443236        0.0905964527        0.1356031354
Nb            0.2502483492        0.0034829915        0.0652709165
Se            0.4165503177        0.0830940700       -0.0074646523
Se            0.4193670349        0.0894052751        0.1353455095
Nb            0.5019118738        0.0036508321        0.0651929786
Se            0.6663282267        0.0836143898       -0.0074855889
Se            0.6698675002        0.0896081794        0.1354554556
Nb            0.7522441745        0.0034268966        0.0652024698
Se            0.9174149811        0.0850270598       -0.0075744142
Se            0.9199245036        0.0903505063        0.1354730073
Nb            0.7515951898        0.2531791361        0.0636316338
Se            0.9227959699        0.3460422857       -0.0037768511
Se            0.9111149465        0.3219147305        0.1385802894
Nb            0.7491915142        0.4987031005        0.0754491476
Se            0.9183457540        0.5887314991        0.0062873753
Se            0.8893044534        0.5327723557        0.1621787761
Nb            0.7491200705        0.7474751856        0.0805301979
Se            0.9123265533        0.8260566124        0.0051070587
Se            0.9298299119        0.8610954064        0.1490380249
Nb            0.4992273125        0.7478820894        0.0809155110
Se            0.6627987257        0.8251190644        0.0054971347
Se            0.6801937579        0.8610141021        0.1491245736
Nb            0.2465328482        0.7451864267        0.0824183496
Se            0.4109856960        0.8237278297        0.0066651686
Se            0.4293099109        0.8606362585        0.1497532415
Nb           -0.0008675159        0.7497765415        0.0796139934
Se            0.1629165860        0.8248028690        0.0057504109
Se            0.1811540682        0.8615321109        0.1492827025
Nb            0.5012363966        0.2528587645        0.0634556081
Se            0.6726540818        0.3453932228       -0.0041603639
Se            0.6596138394        0.3201539879        0.1381980680
Nb            0.5019980883        0.5003953948        0.0755817098
Se            0.6697056031        0.5885608104        0.0059830686
Se            0.6464122389        0.5388435633        0.1614589833
Nb            0.2508393831        0.5021468576        0.0759506777
Se            0.4197930342        0.5886559998        0.0067295990
Se            0.3973585527        0.5400273784        0.1614733145
Nb            0.2513613764        0.2540285278        0.0638528060
Se            0.4227768746        0.3457261926       -0.0038228840
Se            0.4112153803        0.3215201440        0.1384015652
Nb            0.0021475345        0.2539471894        0.0638082193
Se            0.1731326486        0.3463273879       -0.0037338656
Se            0.1611247759        0.3234245828        0.1390312388
Nb           -0.0015893667        0.5003738027        0.0755953447
Se            0.1684995123        0.5886493765        0.0064643948
Se            0.1472675409        0.5490617303        0.1599651145



     Writing output data file ./tmp/fe.save/
     NEW-OLD atomic charge density approx. for the potential

     total cpu time spent up to now is    43093.6 secs

     Self-consistent Calculation

     iteration #  1     ecut=    75.00 Ry     beta= 0.70
     Davidson diagonalization with overlap
     ethr =  1.00E-06,  avg # of iterations =  5.0

     total cpu time spent up to now is    43320.3 secs

     total energy              =  -12726.38611184 Ry
     Harris-Foulkes estimate   =  -12726.40626014 Ry
     estimated scf accuracy    <       0.00652091 Ry

     total magnetization       =    12.89 Bohr mag/cell
     absolute magnetization    =    15.86 Bohr mag/cell

     iteration #  2     ecut=    75.00 Ry     beta= 0.70
     Davidson diagonalization with overlap
     ethr =  1.41E-06,  avg # of iterations =  1.5

     total cpu time spent up to now is    43410.0 secs

     total energy              =  -12726.38617841 Ry
     Harris-Foulkes estimate   =  -12726.38659886 Ry
     estimated scf accuracy    <       0.00416273 Ry

     total magnetization       =    12.74 Bohr mag/cell
     absolute magnetization    =    15.75 Bohr mag/cell

     iteration #  3     ecut=    75.00 Ry     beta= 0.70
     Davidson diagonalization with overlap
     ethr =  8.97E-07,  avg # of iterations =  2.0

     total cpu time spent up to now is    43505.6 secs

     total energy              =  -12726.38634079 Ry
     Harris-Foulkes estimate   =  -12726.38683404 Ry
     estimated scf accuracy    <       0.00847253 Ry

     total magnetization       =    12.89 Bohr mag/cell
     absolute magnetization    =    15.89 Bohr mag/cell

     iteration #  4     ecut=    75.00 Ry     beta= 0.70
     Davidson diagonalization with overlap
     ethr =  8.97E-07,  avg # of iterations =  1.8

     total cpu time spent up to now is    43595.1 secs

     total energy              =  -12726.38665184 Ry
     Harris-Foulkes estimate   =  -12726.38665486 Ry
     estimated scf accuracy    <       0.00034942 Ry

     total magnetization       =    12.78 Bohr mag/cell
     absolute magnetization    =    15.80 Bohr mag/cell

     iteration #  5     ecut=    75.00 Ry     beta= 0.70
     Davidson diagonalization with overlap
     ethr =  7.53E-08,  avg # of iterations =  3.2

     total cpu time spent up to now is    43694.6 secs

     total energy              =  -12726.38667679 Ry
     Harris-Foulkes estimate   =  -12726.38670552 Ry
     estimated scf accuracy    <       0.00066966 Ry

     total magnetization       =    12.73 Bohr mag/cell
     absolute magnetization    =    15.77 Bohr mag/cell

     iteration #  6     ecut=    75.00 Ry     beta= 0.70
     Davidson diagonalization with overlap
     ethr =  7.53E-08,  avg # of iterations =  1.0

     total cpu time spent up to now is    43784.9 secs

     total energy              =  -12726.38669353 Ry
     Harris-Foulkes estimate   =  -12726.38669259 Ry
     estimated scf accuracy    <       0.00007904 Ry

     total magnetization       =    12.74 Bohr mag/cell
     absolute magnetization    =    15.79 Bohr mag/cell

     iteration #  7     ecut=    75.00 Ry     beta= 0.70
     Davidson diagonalization with overlap
     ethr =  1.70E-08,  avg # of iterations =  2.5

     total cpu time spent up to now is    43880.7 secs

     total energy              =  -12726.38670117 Ry
     Harris-Foulkes estimate   =  -12726.38670105 Ry
     estimated scf accuracy    <       0.00002130 Ry

     total magnetization       =    12.73 Bohr mag/cell
     absolute magnetization    =    15.80 Bohr mag/cell

     iteration #  8     ecut=    75.00 Ry     beta= 0.70
     Davidson diagonalization with overlap
     ethr =  4.59E-09,  avg # of iterations =  3.0

     total cpu time spent up to now is    43983.2 secs

     total energy              =  -12726.38670359 Ry
     Harris-Foulkes estimate   =  -12726.38670301 Ry
     estimated scf accuracy    <       0.00001133 Ry

     total magnetization       =    12.72 Bohr mag/cell
     absolute magnetization    =    15.80 Bohr mag/cell

     iteration #  9     ecut=    75.00 Ry     beta= 0.70
     Davidson diagonalization with overlap
     ethr =  2.44E-09,  avg # of iterations =  2.8

     total cpu time spent up to now is    44077.0 secs

     total energy              =  -12726.38670593 Ry
     Harris-Foulkes estimate   =  -12726.38670563 Ry
     estimated scf accuracy    <       0.00000353 Ry

     total magnetization       =    12.70 Bohr mag/cell
     absolute magnetization    =    15.79 Bohr mag/cell

     iteration # 10     ecut=    75.00 Ry     beta= 0.70
     Davidson diagonalization with overlap
     ethr =  7.60E-10,  avg # of iterations =  3.2

     total cpu time spent up to now is    44192.2 secs

     total energy              =  -12726.38670697 Ry
     Harris-Foulkes estimate   =  -12726.38670697 Ry
     estimated scf accuracy    <       0.00000506 Ry

     total magnetization       =    12.69 Bohr mag/cell
     absolute magnetization    =    15.79 Bohr mag/cell

     iteration # 11     ecut=    75.00 Ry     beta= 0.70
     Davidson diagonalization with overlap
