
     Program PWSCF v.6.4.1 starts on 15Jun2021 at 16:35:51 

     This program is part of the open-source Quantum ESPRESSO suite
     for quantum simulation of materials; please cite
         "P. Giannozzi et al., J. Phys.:Condens. Matter 21 395502 (2009);
         "P. Giannozzi et al., J. Phys.:Condens. Matter 29 465901 (2017);
          URL http://www.quantum-espresso.org", 
     in publications or presentations arising from this work. More details at
     http://www.quantum-espresso.org/quote

     Parallel version (MPI & OpenMP), running on     128 processor cores
     Number of MPI processes:               128
     Threads/MPI process:                     1

     MPI processes distributed on     4 nodes
     R & G space division:  proc/nbgrp/npool/nimage =     128
     Reading input from 1Fe_centreconf.relax2.in
Warning: card &CELL ignored
Warning: card / ignored

     Current dimensions of program PWSCF are:
     Max number of different atomic species (ntypx) = 10
     Max number of k-points (npk) =  40000
     Max angular momentum in pseudopotentials (lmaxx) =  3
               file Fe.pbe-spn-kjpaw_psl.0.2.1.UPF: wavefunction(s)  3D renormalized
               file Nb.pbe-spn-kjpaw_psl.1.0.0.UPF: wavefunction(s)  4S 4P 4D renormalized
               file Se.pbe-n-kjpaw_psl.1.0.0.UPF: wavefunction(s)  4S renormalized

     Subspace diagonalization in iterative solution of the eigenvalue problem:
     one sub-group per band group will be used
     scalapack distributed-memory algorithm (size of sub-group:  8*  8 procs)

 
     Parallelization info
     --------------------
     sticks:   dense  smooth     PW     G-vecs:    dense   smooth      PW
     Min         292     109     28                78330    17983    2372
     Max         293     110     29                78337    17996    2385
     Sum       37435   13999   3643             10026649  2302489  304271
 


     bravais-lattice index     =            4
     lattice parameter (alat)  =      26.0483  a.u.
     unit-cell volume          =   26240.8888 (a.u.)^3
     number of atoms/cell      =           49
     number of atomic types    =            3
     number of electrons       =       416.00
     number of Kohn-Sham states=          250
     kinetic-energy cutoff     =      75.0000  Ry
     charge density cutoff     =     800.0000  Ry
     convergence threshold     =      1.0E-07
     mixing beta               =       0.7000
     number of iterations used =            8  local-TF  mixing
     Exchange-correlation      = SLA PW PBX PBC ( 1  4  3  4 0 0)
     nstep                     =          200


     celldm(1)=  26.048308  celldm(2)=   0.000000  celldm(3)=   1.714389
     celldm(4)=   0.000000  celldm(5)=   0.000000  celldm(6)=   0.000000

     crystal axes: (cart. coord. in units of alat)
               a(1) = (   1.000000   0.000000   0.000000 )  
               a(2) = (  -0.500000   0.866025   0.000000 )  
               a(3) = (   0.000000   0.000000   1.714389 )  

     reciprocal axes: (cart. coord. in units 2 pi/alat)
               b(1) = (  1.000000  0.577350  0.000000 )  
               b(2) = (  0.000000  1.154701  0.000000 )  
               b(3) = (  0.000000  0.000000  0.583298 )  


     PseudoPot. # 1 for Fe read from file:
     /u/jojaibal/QuantumEspresso/pseudopotentials/Fe.pbe-spn-kjpaw_psl.0.2.1.UPF
     MD5 check sum: e86618425769142926afa95317d90200
     Pseudo is Projector augmented-wave + core cor, Zval = 16.0
     Generated using "atomic" code by A. Dal Corso v.5.0.99 svn rev. 10869
     Shape of augmentation charge: PSQ
     Using radial grid of 1191 points,  6 beta functions with: 
                l(1) =   0
                l(2) =   0
                l(3) =   1
                l(4) =   1
                l(5) =   2
                l(6) =   2
     Q(r) pseudized with 0 coefficients 


     PseudoPot. # 2 for Nb read from file:
     /u/jojaibal/QuantumEspresso/pseudopotentials/Nb.pbe-spn-kjpaw_psl.1.0.0.UPF
     MD5 check sum: dcedcbb129af9a7271e4748e5febedb1
     Pseudo is Projector augmented-wave + core cor, Zval = 13.0
     Generated using "atomic" code by A. Dal Corso v.6.2.2
     Shape of augmentation charge: PSQ
     Using radial grid of 1227 points,  6 beta functions with: 
                l(1) =   0
                l(2) =   0
                l(3) =   1
                l(4) =   1
                l(5) =   2
                l(6) =   2
     Q(r) pseudized with 0 coefficients 


     PseudoPot. # 3 for Se read from file:
     /u/jojaibal/QuantumEspresso/pseudopotentials/Se.pbe-n-kjpaw_psl.1.0.0.UPF
     MD5 check sum: 12232cb78b362a7b0fca8da9cb95fd5e
     Pseudo is Projector augmented-wave + core cor, Zval =  6.0
     Generated using "atomic" code by A. Dal Corso v.6.3
     Shape of augmentation charge: PSQ
     Using radial grid of 1211 points,  4 beta functions with: 
                l(1) =   0
                l(2) =   0
                l(3) =   1
                l(4) =   1
     Q(r) pseudized with 0 coefficients 


     atomic species   valence    mass     pseudopotential
        Fe            16.00    55.84500     Fe( 1.00)
        Nb            13.00    92.90638     Nb( 1.00)
        Se             6.00    78.96000     Se( 1.00)

     Starting magnetic structure 
     atomic species   magnetization
        Fe           0.500
        Nb           0.000
        Se           0.000

      6 Sym. Ops. (no inversion) found



   Cartesian axes

     site n.     atom                  positions (alat units)
         1           Fe  tau(   1) = (  -0.0000000   0.5773503   0.3883568  )
         2           Nb  tau(   2) = (   0.0000000   0.0000000   0.1216731  )
         3           Se  tau(   3) = (   0.1250256   0.0721836  -0.0015046  )
         4           Se  tau(   4) = (   0.1251302   0.0722439   0.2447538  )
         5           Nb  tau(   5) = (   0.2503053   0.0001010   0.1215954  )
         6           Se  tau(   6) = (   0.3752636   0.0720054  -0.0013750  )
         7           Se  tau(   7) = (   0.3748954   0.0725248   0.2447217  )
         8           Nb  tau(   8) = (   0.5000000   0.0005989   0.1226155  )
         9           Se  tau(   9) = (   0.6247364   0.0720054  -0.0013750  )
        10           Se  tau(  10) = (   0.6251046   0.0725248   0.2447217  )
        11           Nb  tau(  11) = (   0.7496947   0.0001010   0.1215954  )
        12           Se  tau(  12) = (   0.8749744   0.0721836  -0.0015046  )
        13           Se  tau(  13) = (   0.8748698   0.0722439   0.2447538  )
        14           Nb  tau(  14) = (   0.6247968   0.2166237   0.1218620  )
        15           Se  tau(  15) = (   0.7500097   0.2889851  -0.0013750  )
        16           Se  tau(  16) = (   0.7497440   0.2884066   0.2447217  )
        17           Nb  tau(  17) = (   0.5000000   0.4327780   0.1218620  )
        18           Se  tau(  18) = (   0.6252733   0.5050349  -0.0013750  )
        19           Se  tau(  19) = (   0.6246394   0.5050940   0.2447217  )
        20           Nb  tau(  20) = (   0.3749348   0.6492041   0.1215954  )
        21           Se  tau(  21) = (   0.5000000   0.7216583  -0.0015046  )
        22           Se  tau(  22) = (   0.5000000   0.7215375   0.2447538  )
        23           Nb  tau(  23) = (   0.1259973   0.6500948   0.1219830  )
        24           Se  tau(  24) = (   0.2497811   0.7215615  -0.0012122  )
        25           Se  tau(  25) = (   0.2500908   0.7217403   0.2448694  )
        26           Nb  tau(  26) = (  -0.1259973   0.6500948   0.1219830  )
        27           Se  tau(  27) = (   0.0000000   0.7216135  -0.0008093  )
        28           Se  tau(  28) = (   0.0000000   0.7180824   0.2493177  )
        29           Nb  tau(  29) = (  -0.3749348   0.6492041   0.1215954  )
        30           Se  tau(  30) = (  -0.2497811   0.7215615  -0.0012122  )
        31           Se  tau(  31) = (  -0.2500908   0.7217403   0.2448694  )
        32           Nb  tau(  32) = (   0.3752032   0.2166237   0.1218620  )
        33           Se  tau(  33) = (   0.5000000   0.2886751  -0.0012744  )
        34           Se  tau(  34) = (   0.5000000   0.2886751   0.2447809  )
        35           Nb  tau(  35) = (   0.2505186   0.4327133   0.1226155  )
        36           Se  tau(  36) = (   0.3747267   0.5050349  -0.0013750  )
        37           Se  tau(  37) = (   0.3753606   0.5050940   0.2447217  )
        38           Nb  tau(  38) = (   0.0000000   0.4318612   0.1219830  )
        39           Se  tau(  39) = (   0.1249356   0.5052187  -0.0008093  )
        40           Se  tau(  40) = (   0.1218776   0.5069842   0.2493177  )
        41           Nb  tau(  41) = (   0.1252401   0.2167203   0.1215954  )
        42           Se  tau(  42) = (   0.2499903   0.2889851  -0.0013750  )
        43           Se  tau(  43) = (   0.2502560   0.2884066   0.2447217  )
        44           Nb  tau(  44) = (  -0.1252401   0.2167203   0.1215954  )
        45           Se  tau(  45) = (   0.0000000   0.2889278  -0.0012122  )
        46           Se  tau(  46) = (   0.0000000   0.2885703   0.2448694  )
        47           Nb  tau(  47) = (  -0.2505186   0.4327133   0.1226155  )
        48           Se  tau(  48) = (  -0.1249356   0.5052187  -0.0008093  )
        49           Se  tau(  49) = (  -0.1218776   0.5069842   0.2493177  )

     number of k points=     7  Methfessel-Paxton smearing, width (Ry)=  0.0200
                       cart. coord. in units 2pi/alat
        k(    1) = (   0.0000000   0.0000000   0.0000000), wk =   0.0277778
        k(    2) = (   0.0000000   0.1924501   0.0000000), wk =   0.1666667
        k(    3) = (   0.0000000   0.3849002   0.0000000), wk =   0.1666667
        k(    4) = (   0.0000000  -0.5773503   0.0000000), wk =   0.0833333
        k(    5) = (   0.1666667   0.2886751   0.0000000), wk =   0.1666667
        k(    6) = (   0.1666667   0.4811252   0.0000000), wk =   0.3333333
        k(    7) = (   0.3333333   0.5773503   0.0000000), wk =   0.0555556

     Dense  grid: 10026649 G-vectors     FFT dimensions: ( 240, 240, 405)

     Smooth grid:  2302489 G-vectors     FFT dimensions: ( 144, 144, 250)

     Estimated max dynamical RAM per process >     658.71 MB

     Estimated total dynamical RAM >      82.34 GB
     Generating pointlists ...
     new r_m :   0.0816 (alat units)  2.1257 (a.u.) for type    1
     new r_m :   0.0778 (alat units)  2.0275 (a.u.) for type    2
     new r_m :   0.0778 (alat units)  2.0275 (a.u.) for type    3

     Initial potential from superposition of free atoms

     starting charge  415.97620, renormalised to  416.00000

     negative rho (up, down):  1.670E-03 7.134E-03
     Starting wfcs are  349 randomized atomic wfcs
     Checking if some PAW data can be deallocated... 

     total cpu time spent up to now is       60.5 secs

     Self-consistent Calculation

     iteration #  1     ecut=    75.00 Ry     beta= 0.70
     Davidson diagonalization with overlap
     ethr =  1.00E-02,  avg # of iterations =  2.0

     negative rho (up, down):  1.677E-07 2.906E-04

     total cpu time spent up to now is      139.0 secs

     total energy              =  -11738.68384190 Ry
     Harris-Foulkes estimate   =  -11739.21491882 Ry
     estimated scf accuracy    <       4.54166576 Ry

     total magnetization       =     5.01 Bohr mag/cell
     absolute magnetization    =     5.16 Bohr mag/cell

     iteration #  2     ecut=    75.00 Ry     beta= 0.70
     Davidson diagonalization with overlap
     ethr =  1.09E-03,  avg # of iterations =  3.5

     negative rho (up, down):  3.607E-06 1.063E-03

     total cpu time spent up to now is      210.8 secs

     total energy              =  -11738.23345285 Ry
     Harris-Foulkes estimate   =  -11739.08147144 Ry
     estimated scf accuracy    <      11.27337499 Ry

     total magnetization       =     0.29 Bohr mag/cell
     absolute magnetization    =     0.84 Bohr mag/cell

     iteration #  3     ecut=    75.00 Ry     beta= 0.70
     Davidson diagonalization with overlap
     ethr =  1.09E-03,  avg # of iterations =  2.1

     negative rho (up, down):  7.505E-09 1.072E-06

     total cpu time spent up to now is      276.9 secs

     total energy              =  -11738.73463953 Ry
     Harris-Foulkes estimate   =  -11739.07583041 Ry
     estimated scf accuracy    <       2.86758258 Ry

     total magnetization       =     4.97 Bohr mag/cell
     absolute magnetization    =     5.08 Bohr mag/cell

     iteration #  4     ecut=    75.00 Ry     beta= 0.70
     Davidson diagonalization with overlap
     ethr =  6.89E-04,  avg # of iterations =  1.1

     total cpu time spent up to now is      338.8 secs

     total energy              =  -11738.74253120 Ry
     Harris-Foulkes estimate   =  -11738.82100594 Ry
     estimated scf accuracy    <       1.83288926 Ry

     total magnetization       =     4.94 Bohr mag/cell
     absolute magnetization    =     5.08 Bohr mag/cell

     iteration #  5     ecut=    75.00 Ry     beta= 0.70
     Davidson diagonalization with overlap
     ethr =  4.41E-04,  avg # of iterations =  1.1

     total cpu time spent up to now is      400.5 secs

     total energy              =  -11738.76911535 Ry
     Harris-Foulkes estimate   =  -11738.77357853 Ry
     estimated scf accuracy    <       0.20342802 Ry

     total magnetization       =     3.38 Bohr mag/cell
     absolute magnetization    =     3.56 Bohr mag/cell

     iteration #  6     ecut=    75.00 Ry     beta= 0.70
     Davidson diagonalization with overlap
     ethr =  4.89E-05,  avg # of iterations =  6.9

     negative rho (up, down):  9.879E-08 3.282E-04

     total cpu time spent up to now is      474.3 secs

     total energy              =  -11738.76153380 Ry
     Harris-Foulkes estimate   =  -11738.77713635 Ry
     estimated scf accuracy    <       0.24542191 Ry

     total magnetization       =     3.38 Bohr mag/cell
     absolute magnetization    =     3.61 Bohr mag/cell

     iteration #  7     ecut=    75.00 Ry     beta= 0.70
     Davidson diagonalization with overlap
     ethr =  4.89E-05,  avg # of iterations =  2.0

     negative rho (up, down):  1.611E-05 7.744E-03

     total cpu time spent up to now is      537.9 secs

     total energy              =  -11738.76321164 Ry
     Harris-Foulkes estimate   =  -11738.77384714 Ry
     estimated scf accuracy    <       0.32818194 Ry

     total magnetization       =     4.48 Bohr mag/cell
     absolute magnetization    =     4.74 Bohr mag/cell

     iteration #  8     ecut=    75.00 Ry     beta= 0.70
     Davidson diagonalization with overlap
     ethr =  4.89E-05,  avg # of iterations =  1.0

     negative rho (up, down):  3.237E-03 3.631E-02

     total cpu time spent up to now is      598.1 secs

     total energy              =  -11738.76089314 Ry
     Harris-Foulkes estimate   =  -11738.76817099 Ry
     estimated scf accuracy    <       0.03576217 Ry

     total magnetization       =     3.86 Bohr mag/cell
     absolute magnetization    =     4.15 Bohr mag/cell

     iteration #  9     ecut=    75.00 Ry     beta= 0.70
     Davidson diagonalization with overlap
     c_bands:  1 eigenvalues not converged
     c_bands:  3 eigenvalues not converged
     ethr =  8.60E-06,  avg # of iterations =  6.9

     negative rho (up, down):  9.749E-03 6.037E-02

     total cpu time spent up to now is      679.2 secs

     total energy              =  -11738.76935134 Ry
     Harris-Foulkes estimate   =  -11738.77442136 Ry
     estimated scf accuracy    <       0.43965047 Ry

     total magnetization       =     4.78 Bohr mag/cell
     absolute magnetization    =     5.11 Bohr mag/cell

     iteration # 10     ecut=    75.00 Ry     beta= 0.70
     Davidson diagonalization with overlap
     ethr =  8.60E-06,  avg # of iterations =  1.4

     negative rho (up, down):  1.925E-02 5.124E-02

     total cpu time spent up to now is      741.6 secs

     total energy              =  -11738.76106034 Ry
     Harris-Foulkes estimate   =  -11738.77020301 Ry
     estimated scf accuracy    <       0.21989459 Ry

     total magnetization       =     4.70 Bohr mag/cell
     absolute magnetization    =     5.05 Bohr mag/cell

     iteration # 11     ecut=    75.00 Ry     beta= 0.70
     Davidson diagonalization with overlap
     ethr =  8.60E-06,  avg # of iterations =  2.6

     negative rho (up, down):  1.928E-02 2.142E-02

     total cpu time spent up to now is      811.0 secs

     total energy              =  -11738.77035375 Ry
     Harris-Foulkes estimate   =  -11738.77156438 Ry
     estimated scf accuracy    <       0.26348793 Ry

     total magnetization       =     3.99 Bohr mag/cell
     absolute magnetization    =     4.41 Bohr mag/cell

     iteration # 12     ecut=    75.00 Ry     beta= 0.70
     Davidson diagonalization with overlap
     ethr =  8.60E-06,  avg # of iterations =  1.0

     negative rho (up, down):  2.503E-02 4.632E-02

     total cpu time spent up to now is      874.2 secs

     total energy              =  -11738.77111013 Ry
     Harris-Foulkes estimate   =  -11738.77067015 Ry
     estimated scf accuracy    <       0.13321740 Ry

     total magnetization       =     4.12 Bohr mag/cell
     absolute magnetization    =     4.54 Bohr mag/cell

     iteration # 13     ecut=    75.00 Ry     beta= 0.70
     Davidson diagonalization with overlap
     ethr =  8.60E-06,  avg # of iterations =  2.5

     negative rho (up, down):  3.385E-02 1.524E-01

     total cpu time spent up to now is      942.2 secs

     total energy              =  -11738.76773727 Ry
     Harris-Foulkes estimate   =  -11738.77191018 Ry
     estimated scf accuracy    <       0.17964339 Ry

     total magnetization       =     4.14 Bohr mag/cell
     absolute magnetization    =     4.61 Bohr mag/cell

     iteration # 14     ecut=    75.00 Ry     beta= 0.70
     Davidson diagonalization with overlap
     ethr =  8.60E-06,  avg # of iterations =  2.5

     negative rho (up, down):  4.146E-02 1.730E-01

     total cpu time spent up to now is     1007.2 secs

     total energy              =  -11738.74833321 Ry
     Harris-Foulkes estimate   =  -11738.77424028 Ry
     estimated scf accuracy    <       0.38687824 Ry

     total magnetization       =     4.01 Bohr mag/cell
     absolute magnetization    =     4.52 Bohr mag/cell

     iteration # 15     ecut=    75.00 Ry     beta= 0.70
     Davidson diagonalization with overlap
     ethr =  8.60E-06,  avg # of iterations =  2.4

     negative rho (up, down):  6.045E-02 1.865E-01

     total cpu time spent up to now is     1073.7 secs

     total energy              =  -11738.76037451 Ry
     Harris-Foulkes estimate   =  -11738.76651965 Ry
     estimated scf accuracy    <       0.02251584 Ry

     total magnetization       =     4.76 Bohr mag/cell
     absolute magnetization    =     5.26 Bohr mag/cell

     iteration # 16     ecut=    75.00 Ry     beta= 0.70
     Davidson diagonalization with overlap
     ethr =  5.41E-06,  avg # of iterations =  2.5

     negative rho (up, down):  4.756E-02 1.578E-01

     total cpu time spent up to now is     1142.1 secs

     total energy              =  -11738.76350034 Ry
     Harris-Foulkes estimate   =  -11738.76343525 Ry
     estimated scf accuracy    <       0.02214001 Ry

     total magnetization       =     4.66 Bohr mag/cell
     absolute magnetization    =     5.22 Bohr mag/cell

     iteration # 17     ecut=    75.00 Ry     beta= 0.70
     Davidson diagonalization with overlap
     ethr =  5.32E-06,  avg # of iterations =  1.0

     negative rho (up, down):  3.621E-02 1.184E-01

     total cpu time spent up to now is     1202.9 secs

     total energy              =  -11738.76633514 Ry
     Harris-Foulkes estimate   =  -11738.76361676 Ry
     estimated scf accuracy    <       0.01193623 Ry

     total magnetization       =     4.70 Bohr mag/cell
     absolute magnetization    =     5.25 Bohr mag/cell

     iteration # 18     ecut=    75.00 Ry     beta= 0.70
     Davidson diagonalization with overlap
     ethr =  2.87E-06,  avg # of iterations =  2.6

     negative rho (up, down):  2.325E-02 1.676E-01

     total cpu time spent up to now is     1268.4 secs

     total energy              =  -11738.76620436 Ry
     Harris-Foulkes estimate   =  -11738.76651644 Ry
     estimated scf accuracy    <       0.01597700 Ry

     total magnetization       =     4.67 Bohr mag/cell
     absolute magnetization    =     5.22 Bohr mag/cell

     iteration # 19     ecut=    75.00 Ry     beta= 0.70
     Davidson diagonalization with overlap
     ethr =  2.87E-06,  avg # of iterations =  1.0

     negative rho (up, down):  8.422E-03 1.974E-01

     total cpu time spent up to now is     1333.7 secs

     total energy              =  -11738.76621390 Ry
     Harris-Foulkes estimate   =  -11738.76631722 Ry
     estimated scf accuracy    <       0.03283683 Ry

     total magnetization       =     4.69 Bohr mag/cell
     absolute magnetization    =     5.29 Bohr mag/cell

     iteration # 20     ecut=    75.00 Ry     beta= 0.70
     Davidson diagonalization with overlap
     ethr =  2.87E-06,  avg # of iterations =  1.0

     negative rho (up, down):  7.185E-03 1.907E-01

     total cpu time spent up to now is     1397.7 secs

     total energy              =  -11738.76642402 Ry
     Harris-Foulkes estimate   =  -11738.76627929 Ry
     estimated scf accuracy    <       0.03275852 Ry

     total magnetization       =     4.78 Bohr mag/cell
     absolute magnetization    =     5.44 Bohr mag/cell

     iteration # 21     ecut=    75.00 Ry     beta= 0.70
     Davidson diagonalization with overlap
     ethr =  2.87E-06,  avg # of iterations =  1.0

     negative rho (up, down):  3.904E-03 1.606E-01

     total cpu time spent up to now is     1459.4 secs

     total energy              =  -11738.76670110 Ry
     Harris-Foulkes estimate   =  -11738.76642901 Ry
     estimated scf accuracy    <       0.03242902 Ry

     total magnetization       =     4.79 Bohr mag/cell
     absolute magnetization    =     5.46 Bohr mag/cell

     iteration # 22     ecut=    75.00 Ry     beta= 0.70
     Davidson diagonalization with overlap
     ethr =  2.87E-06,  avg # of iterations =  1.0

     negative rho (up, down):  6.030E-03 1.859E-01

     total cpu time spent up to now is     1523.4 secs

     total energy              =  -11738.76672438 Ry
     Harris-Foulkes estimate   =  -11738.76672096 Ry
     estimated scf accuracy    <       0.02781466 Ry

     total magnetization       =     4.81 Bohr mag/cell
     absolute magnetization    =     5.52 Bohr mag/cell

     iteration # 23     ecut=    75.00 Ry     beta= 0.70
     Davidson diagonalization with overlap
     ethr =  2.87E-06,  avg # of iterations =  1.0

     negative rho (up, down):  1.458E-07 7.455E-04

     total cpu time spent up to now is     1591.4 secs

     total energy              =  -11738.76781140 Ry
     Harris-Foulkes estimate   =  -11738.76674948 Ry
     estimated scf accuracy    <       0.03428943 Ry

     total magnetization       =     4.84 Bohr mag/cell
     absolute magnetization    =     5.59 Bohr mag/cell

     iteration # 24     ecut=    75.00 Ry     beta= 0.70
     Davidson diagonalization with overlap
     ethr =  2.87E-06,  avg # of iterations =  3.9

     negative rho (up, down):  6.443E-05 1.731E-02

     total cpu time spent up to now is     1663.6 secs

     total energy              =  -11738.76963529 Ry
     Harris-Foulkes estimate   =  -11738.76938070 Ry
     estimated scf accuracy    <       0.00470150 Ry

     total magnetization       =     4.95 Bohr mag/cell
     absolute magnetization    =     5.72 Bohr mag/cell

     iteration # 25     ecut=    75.00 Ry     beta= 0.70
     Davidson diagonalization with overlap
     c_bands:  3 eigenvalues not converged
     c_bands:  1 eigenvalues not converged
     ethr =  1.13E-06,  avg # of iterations =  7.9

     negative rho (up, down):  2.386E-03 8.723E-02

     total cpu time spent up to now is     1741.7 secs

     total energy              =  -11738.77027785 Ry
     Harris-Foulkes estimate   =  -11738.77014374 Ry
     estimated scf accuracy    <       0.00104082 Ry

     total magnetization       =     5.08 Bohr mag/cell
     absolute magnetization    =     6.07 Bohr mag/cell

     iteration # 26     ecut=    75.00 Ry     beta= 0.70
     Davidson diagonalization with overlap
     c_bands:  1 eigenvalues not converged
     ethr =  2.50E-07,  avg # of iterations =  4.7

     negative rho (up, down):  4.797E-03 5.160E-02

     total cpu time spent up to now is     1813.2 secs

     total energy              =  -11738.77039259 Ry
     Harris-Foulkes estimate   =  -11738.77035038 Ry
     estimated scf accuracy    <       0.00011463 Ry

     total magnetization       =     5.11 Bohr mag/cell
     absolute magnetization    =     6.14 Bohr mag/cell

     iteration # 27     ecut=    75.00 Ry     beta= 0.70
     Davidson diagonalization with overlap
     c_bands:  1 eigenvalues not converged
     ethr =  2.76E-08,  avg # of iterations =  9.0

     negative rho (up, down):  2.731E-03 3.387E-02

     total cpu time spent up to now is     1904.9 secs

     total energy              =  -11738.77043591 Ry
     Harris-Foulkes estimate   =  -11738.77041786 Ry
     estimated scf accuracy    <       0.00002177 Ry

     total magnetization       =     5.08 Bohr mag/cell
     absolute magnetization    =     6.09 Bohr mag/cell

     iteration # 28     ecut=    75.00 Ry     beta= 0.70
     Davidson diagonalization with overlap
     ethr =  5.23E-09,  avg # of iterations =  2.7

     negative rho (up, down):  2.704E-03 3.274E-02

     total cpu time spent up to now is     1982.2 secs

     total energy              =  -11738.77043718 Ry
     Harris-Foulkes estimate   =  -11738.77043871 Ry
     estimated scf accuracy    <       0.00003997 Ry

     total magnetization       =     5.07 Bohr mag/cell
     absolute magnetization    =     6.11 Bohr mag/cell

     iteration # 29     ecut=    75.00 Ry     beta= 0.70
     Davidson diagonalization with overlap
     ethr =  5.23E-09,  avg # of iterations =  2.0

     negative rho (up, down):  1.319E-03 3.342E-02

     total cpu time spent up to now is     2049.2 secs

     total energy              =  -11738.77043706 Ry
     Harris-Foulkes estimate   =  -11738.77043954 Ry
     estimated scf accuracy    <       0.00000721 Ry

     total magnetization       =     5.06 Bohr mag/cell
     absolute magnetization    =     6.13 Bohr mag/cell

     iteration # 30     ecut=    75.00 Ry     beta= 0.70
     Davidson diagonalization with overlap
     ethr =  1.73E-09,  avg # of iterations =  2.9

     negative rho (up, down):  5.547E-04 3.202E-02

     total cpu time spent up to now is     2121.0 secs

     total energy              =  -11738.77043836 Ry
     Harris-Foulkes estimate   =  -11738.77043896 Ry
     estimated scf accuracy    <       0.00001647 Ry

     total magnetization       =     5.04 Bohr mag/cell
     absolute magnetization    =     6.13 Bohr mag/cell

     iteration # 31     ecut=    75.00 Ry     beta= 0.70
     Davidson diagonalization with overlap
     ethr =  1.73E-09,  avg # of iterations =  1.6

     negative rho (up, down):  4.818E-04 2.950E-02

     total cpu time spent up to now is     2185.4 secs

     total energy              =  -11738.77044037 Ry
     Harris-Foulkes estimate   =  -11738.77043892 Ry
     estimated scf accuracy    <       0.00000086 Ry

     total magnetization       =     5.02 Bohr mag/cell
     absolute magnetization    =     6.13 Bohr mag/cell

     iteration # 32     ecut=    75.00 Ry     beta= 0.70
     Davidson diagonalization with overlap
     ethr =  2.07E-10,  avg # of iterations =  5.1

     negative rho (up, down):  4.254E-04 2.953E-02

     total cpu time spent up to now is     2275.6 secs

     total energy              =  -11738.77044140 Ry
     Harris-Foulkes estimate   =  -11738.77044106 Ry
     estimated scf accuracy    <       0.00000022 Ry

     total magnetization       =     5.01 Bohr mag/cell
     absolute magnetization    =     6.14 Bohr mag/cell

     iteration # 33     ecut=    75.00 Ry     beta= 0.70
     Davidson diagonalization with overlap
     ethr =  5.27E-11,  avg # of iterations =  3.8

     negative rho (up, down):  4.573E-04 2.944E-02

     total cpu time spent up to now is     2370.1 secs

     total energy              =  -11738.77044266 Ry
     Harris-Foulkes estimate   =  -11738.77044204 Ry
     estimated scf accuracy    <       0.00000010 Ry

     total magnetization       =     4.99 Bohr mag/cell
     absolute magnetization    =     6.15 Bohr mag/cell

     iteration # 34     ecut=    75.00 Ry     beta= 0.70
     Davidson diagonalization with overlap
     ethr =  2.46E-11,  avg # of iterations =  4.0

     negative rho (up, down):  4.371E-04 2.947E-02
 
     Magnetic moment per site:
     atom:    1    charge:   14.4438    magn:    3.2933    constr:    0.0000
     atom:    2    charge:   10.0872    magn:   -0.1049    constr:    0.0000
     atom:    3    charge:    4.0288    magn:    0.0017    constr:    0.0000
     atom:    4    charge:    4.0307    magn:    0.0005    constr:    0.0000
     atom:    5    charge:   10.0906    magn:   -0.0011    constr:    0.0000
     atom:    6    charge:    4.0279    magn:    0.0042    constr:    0.0000
     atom:    7    charge:    4.0364    magn:    0.0022    constr:    0.0000
     atom:    8    charge:   10.0866    magn:    0.1046    constr:    0.0000
     atom:    9    charge:    4.0279    magn:    0.0042    constr:    0.0000
     atom:   10    charge:    4.0364    magn:    0.0022    constr:    0.0000
     atom:   11    charge:   10.0906    magn:   -0.0011    constr:    0.0000
     atom:   12    charge:    4.0288    magn:    0.0017    constr:    0.0000
     atom:   13    charge:    4.0307    magn:    0.0005    constr:    0.0000
     atom:   14    charge:   10.0913    magn:   -0.0094    constr:    0.0000
     atom:   15    charge:    4.0279    magn:    0.0042    constr:    0.0000
     atom:   16    charge:    4.0364    magn:    0.0022    constr:    0.0000
     atom:   17    charge:   10.0913    magn:   -0.0094    constr:    0.0000
     atom:   18    charge:    4.0279    magn:    0.0042    constr:    0.0000
     atom:   19    charge:    4.0364    magn:    0.0022    constr:    0.0000
     atom:   20    charge:   10.0906    magn:   -0.0011    constr:    0.0000
     atom:   21    charge:    4.0288    magn:    0.0017    constr:    0.0000
     atom:   22    charge:    4.0307    magn:    0.0005    constr:    0.0000
     atom:   23    charge:   10.0956    magn:    0.1828    constr:    0.0000
     atom:   24    charge:    4.0328    magn:    0.0016    constr:    0.0000
     atom:   25    charge:    4.0373    magn:   -0.0019    constr:    0.0000
     atom:   26    charge:   10.0956    magn:    0.1828    constr:    0.0000
     atom:   27    charge:    4.0257    magn:    0.0086    constr:    0.0000
     atom:   28    charge:    4.0264    magn:    0.0182    constr:    0.0000
     atom:   29    charge:   10.0906    magn:   -0.0011    constr:    0.0000
     atom:   30    charge:    4.0328    magn:    0.0016    constr:    0.0000
     atom:   31    charge:    4.0373    magn:   -0.0019    constr:    0.0000
     atom:   32    charge:   10.0913    magn:   -0.0094    constr:    0.0000
     atom:   33    charge:    4.0320    magn:    0.0018    constr:    0.0000
     atom:   34    charge:    4.0350    magn:    0.0024    constr:    0.0000
     atom:   35    charge:   10.0866    magn:    0.1046    constr:    0.0000
     atom:   36    charge:    4.0279    magn:    0.0042    constr:    0.0000
     atom:   37    charge:    4.0364    magn:    0.0022    constr:    0.0000
     atom:   38    charge:   10.0956    magn:    0.1828    constr:    0.0000
     atom:   39    charge:    4.0257    magn:    0.0086    constr:    0.0000
     atom:   40    charge:    4.0264    magn:    0.0182    constr:    0.0000
     atom:   41    charge:   10.0906    magn:   -0.0011    constr:    0.0000
     atom:   42    charge:    4.0279    magn:    0.0042    constr:    0.0000
     atom:   43    charge:    4.0364    magn:    0.0022    constr:    0.0000
     atom:   44    charge:   10.0906    magn:   -0.0011    constr:    0.0000
     atom:   45    charge:    4.0328    magn:    0.0016    constr:    0.0000
     atom:   46    charge:    4.0373    magn:   -0.0019    constr:    0.0000
     atom:   47    charge:   10.0866    magn:    0.1046    constr:    0.0000
     atom:   48    charge:    4.0257    magn:    0.0086    constr:    0.0000
     atom:   49    charge:    4.0264    magn:    0.0182    constr:    0.0000

     total cpu time spent up to now is     2464.7 secs

     End of self-consistent calculation

 ------ SPIN UP ------------


          k = 0.0000 0.0000 0.0000 (287679 PWs)   bands (ev):

   -90.2499 -56.6009 -56.6009 -56.2465 -56.2425 -56.2425 -56.2346 -56.2305
   -56.2305 -56.1723 -56.1669 -56.1669 -56.1651 -56.1604 -56.1604 -56.1570
   -56.1570 -56.1569 -56.1390 -55.8125 -32.4578 -32.4545 -32.4545 -32.4119
   -32.3973 -32.3973 -32.3884 -32.3884 -32.3814 -32.3648 -32.3361 -32.3276
   -32.3276 -32.3124 -32.3124 -32.3073 -32.3073 -32.2990 -32.2990 -32.2976
   -32.2921 -32.2876 -32.2818 -32.2818 -32.2677 -32.2573 -32.2573 -32.2469
   -32.2370 -32.2370 -32.2314 -32.2314 -32.2306 -32.2234 -32.2185 -32.2185
   -32.2120 -32.2104 -32.2104 -32.2068 -32.2046 -32.2046 -32.1876 -32.1803
   -32.1803 -32.1754 -32.1524 -32.1524 -14.8505 -14.3799 -14.2029 -14.2029
   -14.1344 -14.1344 -14.1251 -13.8877 -13.6981 -13.6981 -13.6692 -13.5387
   -13.5387 -13.5299 -13.4809 -13.4809 -13.3856 -13.3758 -13.3758 -13.3725
   -13.3552 -13.3481 -13.3481 -13.2200 -13.2200 -13.2022 -13.1803 -13.1803
   -13.1732 -13.1715 -13.1596 -13.1596  -6.4867  -6.2249  -6.2249  -6.1533
    -5.8211  -5.7029  -5.7029  -5.5188  -5.5110  -5.5107  -5.5107  -5.4805
    -5.4805  -5.3623  -5.3623  -5.3580  -5.3374  -5.3364  -5.3364  -5.2389
    -5.2096  -5.2031  -5.2031  -5.1987  -5.1987  -5.0095  -5.0095  -4.6381
    -4.5871  -4.5871  -4.5593  -4.5356  -4.5356  -4.5068  -4.4851  -4.4851
    -4.4556  -4.4231  -4.4231  -4.4022  -4.3481  -4.3481  -4.2121  -4.1384
    -4.1384  -4.0583  -4.0416  -4.0416  -4.0098  -4.0098  -3.8394  -3.8334
    -3.8334  -3.8208  -3.7868  -3.7868  -3.6774  -3.5890  -3.5787  -3.5787
    -3.5695  -3.5695  -3.5074  -3.5031  -3.5031  -3.2928  -3.0396  -2.9234
    -2.9234  -2.9032  -2.9011  -2.9011  -2.8622  -2.8533  -2.8533  -2.7896
    -2.7896  -2.7085  -2.6021  -2.6021  -2.5703  -2.5515  -2.5515  -2.5329
    -2.4378  -2.3688  -2.3567  -2.3566  -2.3413  -2.3413  -2.3307  -2.3282
    -2.3282  -2.3239  -2.3114  -2.3114  -1.9612  -1.9612  -1.8674  -1.8489
    -1.8489  -1.5050  -1.4814  -1.4814  -1.4200  -1.3609  -1.3609  -1.3106
    -1.3094  -1.3094  -1.1596  -1.1579  -1.0790  -1.0790  -1.0450  -1.0450
    -0.9303  -0.5607   0.9141   0.9141   1.0363   1.1091   1.1091   1.2086
     1.2277   1.2277   1.2331   1.2331   1.2442   1.2657   1.3341   1.3608
     1.3608   1.3690   1.3690   1.4144   1.4384   1.4384   1.4499   1.6003
     1.6433   1.6433   1.7180   1.7180   1.7676   1.7676   1.7826   1.7855
     1.7948   1.7948

          k = 0.0000 0.1925 0.0000 (287730 PWs)   bands (ev):

   -90.2499 -56.6009 -56.6009 -56.2464 -56.2426 -56.2425 -56.2346 -56.2305
   -56.2305 -56.1721 -56.1677 -56.1669 -56.1644 -56.1605 -56.1603 -56.1572
   -56.1570 -56.1568 -56.1390 -55.8125 -32.4561 -32.4528 -32.4514 -32.4121
   -32.4013 -32.4004 -32.3891 -32.3850 -32.3826 -32.3651 -32.3372 -32.3324
   -32.3316 -32.3192 -32.3173 -32.3088 -32.3043 -32.3013 -32.2992 -32.2919
   -32.2900 -32.2857 -32.2809 -32.2774 -32.2694 -32.2524 -32.2480 -32.2440
   -32.2378 -32.2367 -32.2310 -32.2307 -32.2292 -32.2252 -32.2191 -32.2184
   -32.2118 -32.2110 -32.2109 -32.2093 -32.2063 -32.2017 -32.1875 -32.1818
   -32.1815 -32.1750 -32.1558 -32.1530 -14.8332 -14.4336 -14.2704 -14.2504
   -14.1327 -14.0634 -13.9780 -13.8775 -13.7456 -13.7047 -13.6329 -13.5902
   -13.5470 -13.5187 -13.4947 -13.4645 -13.4402 -13.4176 -13.3868 -13.3621
   -13.3525 -13.3047 -13.2938 -13.2477 -13.2404 -13.2016 -13.2008 -13.1925
   -13.1765 -13.1659 -13.1305 -13.1298  -6.4664  -6.1914  -6.1828  -6.1235
    -5.8384  -5.7087  -5.6992  -5.5711  -5.5677  -5.5131  -5.4991  -5.4815
    -5.4790  -5.4236  -5.3988  -5.3717  -5.3583  -5.3486  -5.3276  -5.3219
    -5.2908  -5.2233  -5.2185  -5.0653  -5.0519  -4.9935  -4.9704  -4.7201
    -4.6736  -4.6356  -4.5797  -4.5493  -4.5364  -4.4966  -4.4878  -4.4475
    -4.4246  -4.4172  -4.3971  -4.3931  -4.3330  -4.3320  -4.2520  -4.2015
    -4.1936  -4.1138  -4.1040  -3.9864  -3.8787  -3.8660  -3.8326  -3.8196
    -3.8160  -3.8079  -3.7877  -3.7670  -3.7642  -3.7388  -3.5291  -3.5236
    -3.4904  -3.4885  -3.4559  -3.3248  -3.2742  -3.2627  -3.0960  -3.0922
    -3.0521  -3.0090  -2.9893  -2.9063  -2.9012  -2.8926  -2.8020  -2.7972
    -2.7291  -2.6885  -2.6773  -2.6767  -2.5874  -2.5797  -2.4993  -2.4875
    -2.4508  -2.4398  -2.4250  -2.4189  -2.3638  -2.3323  -2.3074  -2.3067
    -2.2402  -2.1969  -2.1819  -2.1741  -2.0299  -2.0198  -2.0008  -1.9496
    -1.8674  -1.5461  -1.4829  -1.4472  -1.4427  -1.3729  -1.3538  -1.2866
    -1.2544  -1.2205  -1.2155  -1.1675  -1.0943  -1.0868  -0.9732  -0.9447
    -0.8888  -0.5724   0.9115   0.9241   1.0201   1.0753   1.0952   1.1636
     1.1661   1.1968   1.2072   1.2345   1.2401   1.2612   1.3171   1.3716
     1.3746   1.3959   1.3965   1.4193   1.4472   1.4496   1.4764   1.5391
     1.5861   1.6041   1.6787   1.7051   1.7138   1.7245   1.7381   1.7447
     1.7777   1.7860

          k = 0.0000 0.3849 0.0000 (287830 PWs)   bands (ev):

   -90.2499 -56.6009 -56.6009 -56.2463 -56.2428 -56.2425 -56.2345 -56.2305
   -56.2305 -56.1716 -56.1690 -56.1668 -56.1635 -56.1606 -56.1599 -56.1577
   -56.1570 -56.1568 -56.1390 -55.8125 -32.4525 -32.4489 -32.4431 -32.4147
   -32.4091 -32.4052 -32.3926 -32.3831 -32.3796 -32.3662 -32.3435 -32.3404
   -32.3359 -32.3218 -32.3197 -32.3120 -32.3072 -32.3062 -32.3016 -32.2936
   -32.2839 -32.2826 -32.2757 -32.2656 -32.2606 -32.2471 -32.2450 -32.2407
   -32.2375 -32.2361 -32.2319 -32.2274 -32.2257 -32.2213 -32.2202 -32.2180
   -32.2140 -32.2123 -32.2111 -32.2097 -32.2084 -32.1991 -32.1875 -32.1851
   -32.1849 -32.1741 -32.1642 -32.1543 -14.7859 -14.5373 -14.3355 -14.2943
   -14.0442 -13.9529 -13.8775 -13.8240 -13.7678 -13.7300 -13.6666 -13.6232
   -13.6141 -13.5418 -13.5168 -13.4769 -13.4169 -13.4051 -13.3795 -13.3635
   -13.3526 -13.3230 -13.3071 -13.2566 -13.2403 -13.2240 -13.1928 -13.1872
   -13.1768 -13.1655 -13.1019 -13.1006  -6.4215  -6.0955  -6.0709  -6.0283
    -5.8787  -5.7819  -5.7476  -5.6828  -5.6375  -5.5594  -5.5343  -5.4900
    -5.4799  -5.4640  -5.4453  -5.4446  -5.4093  -5.3504  -5.3320  -5.3258
    -5.2463  -5.2410  -5.2135  -5.0637  -5.0604  -4.8025  -4.7716  -4.7568
    -4.7162  -4.6667  -4.6666  -4.5884  -4.5610  -4.5593  -4.5352  -4.5190
    -4.4682  -4.4514  -4.4096  -4.4052  -4.3456  -4.3226  -4.2789  -4.2477
    -4.1579  -4.1485  -3.9835  -3.9281  -3.9092  -3.8258  -3.7669  -3.7556
    -3.7453  -3.7347  -3.7301  -3.7210  -3.7091  -3.5795  -3.5784  -3.5110
    -3.4329  -3.4093  -3.3704  -3.2903  -3.2170  -3.1877  -3.1551  -3.1513
    -3.0692  -3.0368  -3.0039  -2.9327  -2.9321  -2.8652  -2.8512  -2.8292
    -2.7650  -2.7379  -2.6977  -2.6278  -2.6210  -2.6046  -2.5789  -2.5279
    -2.5121  -2.4739  -2.4231  -2.4148  -2.3743  -2.3698  -2.3534  -2.3148
    -2.3060  -2.2634  -2.1171  -2.1156  -2.0719  -2.0130  -1.9995  -1.9309
    -1.9063  -1.6159  -1.5264  -1.4457  -1.4385  -1.3326  -1.3193  -1.2822
    -1.2607  -1.2137  -1.1804  -1.1122  -1.1062  -1.0261  -0.8850  -0.8260
    -0.7992  -0.6043   0.9031   0.9365   0.9722   1.0084   1.0489   1.0757
     1.0935   1.1099   1.2040   1.2327   1.2633   1.3103   1.3150   1.3655
     1.3845   1.3921   1.4332   1.4385   1.4562   1.4681   1.4845   1.4933
     1.5173   1.5670   1.5806   1.6089   1.6376   1.6521   1.6561   1.7360
     1.7392   1.7870

          k = 0.0000-0.5774 0.0000 (287882 PWs)   bands (ev):

   -90.2499 -56.6009 -56.6009 -56.2462 -56.2429 -56.2425 -56.2345 -56.2305
   -56.2305 -56.1712 -56.1697 -56.1668 -56.1632 -56.1606 -56.1595 -56.1581
   -56.1570 -56.1567 -56.1390 -55.8125 -32.4505 -32.4464 -32.4363 -32.4176
   -32.4157 -32.4056 -32.3970 -32.3816 -32.3768 -32.3669 -32.3464 -32.3449
   -32.3364 -32.3227 -32.3202 -32.3129 -32.3109 -32.3085 -32.3021 -32.2940
   -32.2811 -32.2801 -32.2725 -32.2636 -32.2527 -32.2465 -32.2418 -32.2415
   -32.2386 -32.2362 -32.2341 -32.2265 -32.2235 -32.2207 -32.2195 -32.2172
   -32.2160 -32.2126 -32.2109 -32.2096 -32.2019 -32.1981 -32.1897 -32.1874
   -32.1871 -32.1735 -32.1697 -32.1550 -14.7451 -14.6019 -14.3554 -14.3096
   -13.9793 -13.9074 -13.8683 -13.7805 -13.7594 -13.7514 -13.6685 -13.6522
   -13.6397 -13.6019 -13.5182 -13.4709 -13.4131 -13.3741 -13.3652 -13.3592
   -13.3534 -13.3504 -13.3233 -13.2898 -13.2326 -13.2239 -13.1832 -13.1820
   -13.1765 -13.1653 -13.0912 -13.0901  -6.3959  -5.9793  -5.9686  -5.9166
    -5.9107  -5.8798  -5.8533  -5.7967  -5.6480  -5.6471  -5.5469  -5.5182
    -5.4944  -5.4653  -5.4355  -5.4026  -5.3944  -5.3704  -5.3415  -5.3348
    -5.2604  -5.2486  -5.1787  -5.0676  -4.9493  -4.9342  -4.7755  -4.6727
    -4.6605  -4.6286  -4.6181  -4.6038  -4.5949  -4.5651  -4.5523  -4.5415
    -4.5208  -4.5085  -4.4734  -4.4640  -4.3549  -4.3136  -4.2547  -4.2457
    -4.1704  -4.1523  -3.9996  -3.9470  -3.8705  -3.7164  -3.7160  -3.6842
    -3.6624  -3.6548  -3.6484  -3.6324  -3.6293  -3.6130  -3.6126  -3.6018
    -3.4861  -3.4770  -3.3752  -3.3462  -3.3339  -3.2167  -3.1641  -3.1117
    -3.0847  -2.9139  -2.8852  -2.8151  -2.7949  -2.7669  -2.7653  -2.7568
    -2.7427  -2.7397  -2.6961  -2.6850  -2.6516  -2.6343  -2.6297  -2.6260
    -2.6205  -2.6177  -2.6121  -2.5610  -2.5467  -2.3467  -2.2932  -2.2807
    -2.2737  -2.2668  -2.2459  -2.0631  -1.9893  -1.9620  -1.9575  -1.9260
    -1.9148  -1.6345  -1.5601  -1.4075  -1.4022  -1.3763  -1.3721  -1.2751
    -1.2151  -1.1871  -1.1671  -1.1111  -1.1097  -0.9977  -0.8144  -0.7754
    -0.7697  -0.6272   0.8970   0.9327   0.9465   0.9728   1.0185   1.0381
     1.0624   1.0691   1.2397   1.2676   1.2760   1.3233   1.3404   1.3536
     1.3725   1.3817   1.4162   1.4267   1.4529   1.4596   1.4906   1.4997
     1.5262   1.5289   1.5562   1.5577   1.5628   1.5899   1.6576   1.7326
     1.7454   1.7529

          k = 0.1667 0.2887 0.0000 (287748 PWs)   bands (ev):

   -90.2499 -56.6009 -56.6009 -56.2463 -56.2427 -56.2425 -56.2345 -56.2305
   -56.2305 -56.1718 -56.1687 -56.1668 -56.1637 -56.1605 -56.1600 -56.1576
   -56.1570 -56.1568 -56.1390 -55.8125 -32.4536 -32.4495 -32.4461 -32.4133
   -32.4088 -32.4001 -32.3916 -32.3879 -32.3793 -32.3654 -32.3436 -32.3386
   -32.3314 -32.3210 -32.3197 -32.3127 -32.3083 -32.3020 -32.2974 -32.2956
   -32.2909 -32.2827 -32.2749 -32.2668 -32.2645 -32.2478 -32.2472 -32.2387
   -32.2377 -32.2351 -32.2311 -32.2279 -32.2275 -32.2241 -32.2198 -32.2182
   -32.2130 -32.2123 -32.2110 -32.2098 -32.2085 -32.2000 -32.1875 -32.1857
   -32.1822 -32.1746 -32.1613 -32.1542 -14.8006 -14.4968 -14.3868 -14.1873
   -14.1325 -13.9680 -13.8786 -13.8503 -13.7780 -13.7194 -13.6538 -13.6183
   -13.5770 -13.5342 -13.4947 -13.4764 -13.4467 -13.4145 -13.3998 -13.3782
   -13.3314 -13.2908 -13.2881 -13.2713 -13.2367 -13.2227 -13.2094 -13.1964
   -13.1765 -13.1415 -13.1279 -13.0974  -6.4336  -6.1279  -6.1019  -6.0629
    -5.8612  -5.7432  -5.7010  -5.6444  -5.6205  -5.6016  -5.5636  -5.4954
    -5.4704  -5.4501  -5.4346  -5.3999  -5.3771  -5.3697  -5.3474  -5.3193
    -5.2871  -5.2385  -5.1296  -5.0690  -5.0332  -4.9789  -4.7478  -4.7466
    -4.6977  -4.6119  -4.6014  -4.5817  -4.5611  -4.5472  -4.5355  -4.5315
    -4.5028  -4.4919  -4.4503  -4.4230  -4.3530  -4.3353  -4.2109  -4.1611
    -4.1119  -4.0857  -4.0394  -4.0124  -3.9970  -3.8482  -3.7850  -3.7675
    -3.7575  -3.7411  -3.7312  -3.6690  -3.6140  -3.5820  -3.5675  -3.5597
    -3.5013  -3.4895  -3.3560  -3.2587  -3.2417  -3.2196  -3.1883  -3.1246
    -3.0846  -3.0658  -3.0298  -2.9947  -2.8673  -2.8588  -2.8071  -2.7659
    -2.7336  -2.7056  -2.6812  -2.6748  -2.6712  -2.5658  -2.5570  -2.5290
    -2.5005  -2.4586  -2.4560  -2.4400  -2.4395  -2.3578  -2.3026  -2.2252
    -2.2050  -2.1967  -2.1311  -2.0898  -2.0733  -2.0530  -2.0417  -2.0310
    -1.9252  -1.5445  -1.5295  -1.4297  -1.4020  -1.3731  -1.3399  -1.3028
    -1.2619  -1.2218  -1.2034  -1.1483  -1.0458  -0.9973  -0.9484  -0.8942
    -0.7881  -0.5945   0.9049   0.9285   0.9762   0.9996   1.0906   1.1062
     1.1281   1.1541   1.2121   1.2274   1.2333   1.2403   1.3401   1.3762
     1.3818   1.3970   1.4256   1.4329   1.4538   1.4747   1.4781   1.5121
     1.5213   1.5784   1.6181   1.6418   1.6443   1.6725   1.6958   1.7011
     1.7089   1.7276

          k = 0.1667 0.4811 0.0000 (287831 PWs)   bands (ev):

   -90.2499 -56.6009 -56.6009 -56.2462 -56.2429 -56.2425 -56.2345 -56.2305
   -56.2305 -56.1712 -56.1697 -56.1668 -56.1632 -56.1606 -56.1595 -56.1581
   -56.1570 -56.1567 -56.1390 -55.8125 -32.4504 -32.4459 -32.4381 -32.4181
   -32.4126 -32.4037 -32.3949 -32.3889 -32.3799 -32.3649 -32.3460 -32.3407
   -32.3337 -32.3231 -32.3202 -32.3173 -32.3123 -32.3033 -32.3010 -32.2941
   -32.2911 -32.2779 -32.2711 -32.2595 -32.2546 -32.2472 -32.2464 -32.2391
   -32.2377 -32.2347 -32.2325 -32.2267 -32.2232 -32.2207 -32.2182 -32.2167
   -32.2147 -32.2127 -32.2107 -32.2097 -32.2057 -32.1989 -32.1906 -32.1875
   -32.1872 -32.1734 -32.1675 -32.1558 -14.7498 -14.5714 -14.4515 -14.1915
   -14.0397 -13.9203 -13.8768 -13.7820 -13.7535 -13.7245 -13.6926 -13.6617
   -13.5793 -13.5572 -13.5424 -13.4839 -13.4548 -13.4096 -13.3885 -13.3635
   -13.3352 -13.3080 -13.2938 -13.2674 -13.2515 -13.2398 -13.2177 -13.1784
   -13.1647 -13.1411 -13.1116 -13.0788  -6.3968  -6.0166  -5.9717  -5.9369
    -5.8792  -5.8333  -5.7911  -5.7478  -5.6977  -5.6593  -5.6213  -5.5780
    -5.5388  -5.5033  -5.4647  -5.4447  -5.3568  -5.3288  -5.3085  -5.2799
    -5.2268  -5.1654  -5.1314  -5.0326  -5.0145  -4.8685  -4.8269  -4.7614
    -4.7027  -4.6642  -4.6445  -4.6088  -4.5875  -4.5615  -4.5583  -4.5366
    -4.5235  -4.4937  -4.4685  -4.4621  -4.3552  -4.3308  -4.3004  -4.2211
    -4.1438  -4.1012  -3.9553  -3.9320  -3.7875  -3.7314  -3.7093  -3.7033
    -3.6878  -3.6781  -3.6643  -3.6444  -3.6251  -3.6055  -3.5543  -3.5087
    -3.4666  -3.4393  -3.4135  -3.3679  -3.3510  -3.3369  -3.2497  -3.1766
    -3.1176  -2.9292  -2.8556  -2.8138  -2.7946  -2.7820  -2.7713  -2.7615
    -2.7507  -2.7214  -2.6985  -2.6824  -2.6682  -2.6443  -2.6131  -2.5849
    -2.5597  -2.5545  -2.5322  -2.4722  -2.4454  -2.4178  -2.3956  -2.3732
    -2.2609  -2.2096  -2.1507  -2.1405  -2.0896  -2.0463  -1.9617  -1.9228
    -1.8973  -1.5549  -1.4764  -1.4539  -1.3872  -1.3563  -1.3522  -1.3230
    -1.2883  -1.2488  -1.1866  -1.0722  -1.0124  -0.9571  -0.8833  -0.8383
    -0.7075  -0.6201   0.8876   0.8925   0.9191   0.9450   1.0457   1.0927
     1.1032   1.1443   1.2251   1.2418   1.2614   1.2816   1.3203   1.3485
     1.3615   1.3984   1.4087   1.4363   1.4440   1.4745   1.5027   1.5147
     1.5316   1.5403   1.5468   1.5658   1.5840   1.6167   1.6372   1.6509
     1.6816   1.7001

          k = 0.3333 0.5774 0.0000 (287970 PWs)   bands (ev):

   -90.2499 -56.6009 -56.6009 -56.2462 -56.2429 -56.2425 -56.2345 -56.2305
   -56.2305 -56.1706 -56.1704 -56.1668 -56.1631 -56.1606 -56.1591 -56.1586
   -56.1570 -56.1567 -56.1390 -55.8125 -32.4488 -32.4444 -32.4359 -32.4202
   -32.4114 -32.4035 -32.3957 -32.3922 -32.3855 -32.3634 -32.3420 -32.3411
   -32.3326 -32.3241 -32.3203 -32.3192 -32.3153 -32.3022 -32.3017 -32.2994
   -32.2890 -32.2777 -32.2688 -32.2553 -32.2502 -32.2498 -32.2476 -32.2391
   -32.2374 -32.2352 -32.2319 -32.2266 -32.2213 -32.2199 -32.2176 -32.2173
   -32.2141 -32.2106 -32.2100 -32.2068 -32.2043 -32.1982 -32.1958 -32.1928
   -32.1874 -32.1721 -32.1679 -32.1572 -14.7267 -14.5510 -14.5410 -14.1035
   -14.0294 -14.0012 -13.8446 -13.8044 -13.7521 -13.6954 -13.6781 -13.6157
   -13.5714 -13.5698 -13.5622 -13.4997 -13.4828 -13.4658 -13.3671 -13.3639
   -13.3145 -13.2748 -13.2742 -13.2705 -13.2645 -13.2602 -13.2574 -13.1693
   -13.1521 -13.1269 -13.1223 -13.0707  -6.3841  -5.9476  -5.8927  -5.8800
    -5.8292  -5.8093  -5.7969  -5.7659  -5.7605  -5.7402  -5.7294  -5.7279
    -5.5912  -5.5174  -5.4726  -5.4615  -5.3275  -5.3173  -5.2954  -5.1979
    -5.1644  -5.0752  -5.0325  -4.9661  -4.9542  -4.9450  -4.9102  -4.8964
    -4.7451  -4.6717  -4.6684  -4.6309  -4.6173  -4.5964  -4.5939  -4.5803
    -4.5372  -4.5177  -4.4756  -4.3839  -4.3348  -4.3266  -4.2099  -4.1829
    -4.1186  -4.1024  -4.0990  -3.7968  -3.7141  -3.6998  -3.6918  -3.6840
    -3.6425  -3.6335  -3.6266  -3.6141  -3.5871  -3.5554  -3.5398  -3.5361
    -3.5233  -3.5213  -3.4952  -3.4281  -3.3058  -3.2496  -3.2439  -3.2068
    -3.1906  -3.1263  -2.9554  -2.8318  -2.8076  -2.7605  -2.7210  -2.7054
    -2.7014  -2.6433  -2.6275  -2.6259  -2.6187  -2.6057  -2.5768  -2.5192
    -2.5153  -2.5106  -2.5070  -2.4976  -2.4856  -2.4175  -2.4129  -2.3921
    -2.3844  -2.3775  -2.3719  -2.1568  -2.0740  -2.0509  -1.9418  -1.8794
    -1.8695  -1.4611  -1.4298  -1.4191  -1.3910  -1.3768  -1.3688  -1.3478
    -1.3312  -1.3240  -1.1796  -0.9939  -0.9689  -0.9494  -0.8814  -0.8505
    -0.6900  -0.6074   0.8397   0.8758   0.8947   0.9152   1.0522   1.1296
     1.1428   1.1676   1.2473   1.2663   1.2837   1.2930   1.2947   1.3004
     1.3014   1.3487   1.4203   1.4301   1.4371   1.4479   1.5008   1.5273
     1.5402   1.5580   1.5613   1.5967   1.5969   1.6047   1.6142   1.6161
     1.6291   1.6408

 ------ SPIN DOWN ----------


          k = 0.0000 0.0000 0.0000 (287679 PWs)   bands (ev):

   -86.6510 -56.2211 -56.1803 -56.1714 -56.1714 -56.1666 -56.1658 -56.1658
   -56.1613 -56.1613 -56.1593 -56.1574 -56.1569 -56.1569 -56.0986 -56.0914
   -56.0914 -52.9153 -52.9153 -52.5943 -32.4135 -32.4114 -32.4114 -32.3654
   -32.3654 -32.3476 -32.3476 -32.3474 -32.3358 -32.2962 -32.2917 -32.2896
   -32.2896 -32.2778 -32.2720 -32.2720 -32.2556 -32.2491 -32.2491 -32.2405
   -32.2405 -32.2317 -32.2317 -32.2306 -32.2303 -32.2259 -32.2259 -32.2212
   -32.2151 -32.2151 -32.2110 -32.2069 -32.2069 -32.2060 -32.2012 -32.2012
   -32.1994 -32.1727 -32.1727 -32.1562 -32.1550 -32.1550 -32.1536 -32.1345
   -32.1345 -32.1225 -32.1049 -32.1049 -14.8360 -14.3633 -14.1887 -14.1887
   -14.1313 -14.1313 -14.1240 -13.8798 -13.6798 -13.6798 -13.6617 -13.5361
   -13.5361 -13.5279 -13.4740 -13.4740 -13.3826 -13.3728 -13.3728 -13.3683
   -13.3524 -13.3457 -13.3457 -13.2094 -13.2094 -13.1998 -13.1766 -13.1766
   -13.1689 -13.1682 -13.1585 -13.1585  -6.3938  -6.1979  -6.1979  -6.1214
    -5.7906  -5.5950  -5.5950  -5.4973  -5.4973  -5.4965  -5.4804  -5.4144
    -5.4144  -5.3475  -5.3475  -5.3434  -5.3225  -5.3171  -5.3171  -5.2250
    -5.1945  -5.1945  -5.1903  -5.1903  -5.1866  -4.7880  -4.7880  -4.5959
    -4.5361  -4.5188  -4.5188  -4.5108  -4.5049  -4.5049  -4.4521  -4.4521
    -4.4359  -4.3942  -4.3942  -4.3933  -4.1615  -4.1063  -4.1063  -4.0445
    -4.0258  -4.0258  -3.9095  -3.9095  -3.8347  -3.8277  -3.8277  -3.8112
    -3.6354  -3.5946  -3.5946  -3.5625  -3.5625  -3.5572  -3.5023  -3.5023
    -3.4934  -3.0299  -2.9917  -2.9917  -2.8994  -2.8994  -2.8798  -2.8798
    -2.8777  -2.8582  -2.8367  -2.8367  -2.7242  -2.6226  -2.6226  -2.5671
    -2.5612  -2.5612  -2.5264  -2.4417  -2.3722  -2.3722  -2.3451  -2.3451
    -2.3420  -2.3389  -2.3126  -2.3102  -2.3102  -2.3024  -2.3024  -1.9511
    -1.9511  -1.8632  -1.8632  -1.8568  -1.4750  -1.4290  -1.4290  -1.4019
    -1.3606  -1.3240  -1.3240  -1.2779  -1.2779  -1.2564  -1.0726  -1.0726
    -1.0551  -1.0551  -1.0304  -1.0009  -0.9539  -0.9539  -0.7413  -0.3308
    -0.3308  -0.0011   1.0735   1.0735   1.1742   1.1984   1.1984   1.2367
     1.2495   1.2495   1.2606   1.2886   1.2886   1.3716   1.3953   1.4089
     1.4089   1.4242   1.4242   1.4250   1.4671   1.4671   1.4989   1.6691
     1.7059   1.7059   1.7390   1.7390   1.7982   1.8114   1.8114   1.8278
     1.8278   1.8330

          k = 0.0000 0.1925 0.0000 (287730 PWs)   bands (ev):

   -86.6510 -56.2211 -56.1802 -56.1719 -56.1716 -56.1664 -56.1655 -56.1654
   -56.1615 -56.1615 -56.1592 -56.1582 -56.1570 -56.1562 -56.0986 -56.0914
   -56.0914 -52.9153 -52.9153 -52.5943 -32.4116 -32.4095 -32.4080 -32.3664
   -32.3659 -32.3542 -32.3516 -32.3410 -32.3346 -32.3113 -32.2960 -32.2945
   -32.2903 -32.2715 -32.2706 -32.2646 -32.2571 -32.2499 -32.2453 -32.2413
   -32.2408 -32.2365 -32.2336 -32.2296 -32.2285 -32.2261 -32.2199 -32.2157
   -32.2150 -32.2122 -32.2094 -32.2073 -32.2073 -32.2042 -32.2018 -32.2008
   -32.1970 -32.1742 -32.1733 -32.1617 -32.1569 -32.1525 -32.1509 -32.1354
   -32.1342 -32.1230 -32.1075 -32.1054 -14.8183 -14.4192 -14.2650 -14.2399
   -14.1216 -14.0561 -13.9738 -13.8687 -13.7332 -13.6874 -13.6223 -13.5854
   -13.5424 -13.5148 -13.4911 -13.4618 -13.4347 -13.4134 -13.3839 -13.3592
   -13.3497 -13.3011 -13.2900 -13.2418 -13.2349 -13.1975 -13.1940 -13.1882
   -13.1733 -13.1632 -13.1273 -13.1266  -6.3687  -6.1640  -6.1551  -6.0924
    -5.8034  -5.6156  -5.6094  -5.5372  -5.5267  -5.4951  -5.4798  -5.4479
    -5.4326  -5.3928  -5.3760  -5.3576  -5.3364  -5.3290  -5.3120  -5.3037
    -5.2770  -5.2143  -5.2017  -4.9987  -4.9889  -4.8443  -4.8076  -4.6724
    -4.6494  -4.5955  -4.5569  -4.5145  -4.5017  -4.4648  -4.4451  -4.4074
    -4.3814  -4.3810  -4.3664  -4.3597  -4.2357  -4.2171  -4.1812  -3.9979
    -3.9538  -3.9013  -3.8505  -3.8459  -3.8247  -3.8092  -3.7985  -3.7924
    -3.7787  -3.7331  -3.5303  -3.5303  -3.4856  -3.4662  -3.4518  -3.2857
    -3.2464  -3.1390  -3.0946  -3.0535  -3.0329  -2.9742  -2.9737  -2.9503
    -2.8775  -2.8672  -2.8646  -2.7333  -2.6920  -2.6778  -2.6703  -2.6006
    -2.5857  -2.5119  -2.4785  -2.4596  -2.4278  -2.4151  -2.4148  -2.3654
    -2.3418  -2.3054  -2.2909  -2.2429  -2.1913  -2.1848  -2.1809  -2.0276
    -2.0218  -1.9883  -1.9400  -1.8724  -1.4816  -1.4637  -1.4308  -1.3858
    -1.3746  -1.3353  -1.3208  -1.2312  -1.2208  -1.1641  -1.1598  -1.1231
    -1.0636  -1.0417  -0.9694  -0.9685  -0.8933  -0.8887  -0.7419  -0.3305
    -0.3303  -0.0045   1.0587   1.0819   1.1531   1.1606   1.1877   1.2021
     1.2056   1.2291   1.2504   1.2762   1.2879   1.3313   1.3692   1.4155
     1.4256   1.4460   1.4562   1.4637   1.4798   1.4857   1.5095   1.5902
     1.6252   1.6457   1.7150   1.7374   1.7617   1.7668   1.7773   1.8114
     1.8253   1.8309

          k = 0.0000 0.3849 0.0000 (287830 PWs)   bands (ev):

   -86.6510 -56.2211 -56.1800 -56.1726 -56.1718 -56.1663 -56.1645 -56.1644
   -56.1621 -56.1619 -56.1591 -56.1590 -56.1571 -56.1556 -56.0986 -56.0914
   -56.0914 -52.9153 -52.9153 -52.5943 -32.4076 -32.4047 -32.3978 -32.3716
   -32.3687 -32.3624 -32.3578 -32.3337 -32.3316 -32.3262 -32.3048 -32.3025
   -32.2953 -32.2708 -32.2689 -32.2592 -32.2542 -32.2490 -32.2444 -32.2412
   -32.2403 -32.2330 -32.2304 -32.2276 -32.2249 -32.2226 -32.2199 -32.2171
   -32.2145 -32.2125 -32.2100 -32.2089 -32.2055 -32.2007 -32.1974 -32.1957
   -32.1872 -32.1774 -32.1748 -32.1689 -32.1599 -32.1516 -32.1481 -32.1374
   -32.1333 -32.1241 -32.1133 -32.1066 -14.7690 -14.5276 -14.3293 -14.2847
   -14.0317 -13.9432 -13.8636 -13.8156 -13.7638 -13.7166 -13.6615 -13.6175
   -13.6095 -13.5348 -13.5098 -13.4732 -13.4125 -13.4009 -13.3759 -13.3605
   -13.3498 -13.3176 -13.3022 -13.2538 -13.2359 -13.2207 -13.1855 -13.1831
   -13.1734 -13.1629 -13.0979 -13.0969  -6.3103  -6.0663  -6.0389  -5.9991
    -5.8442  -5.7423  -5.7181  -5.6357  -5.5352  -5.5348  -5.5002  -5.4681
    -5.4584  -5.4416  -5.4336  -5.4291  -5.3622  -5.3231  -5.3057  -5.3008
    -5.2340  -5.2296  -5.1700  -4.8941  -4.8748  -4.7807  -4.7402  -4.7202
    -4.6822  -4.6529  -4.6318  -4.5706  -4.5428  -4.5408  -4.4907  -4.4889
    -4.4475  -4.4115  -4.3755  -4.3680  -4.2576  -4.2520  -4.0182  -3.9967
    -3.8832  -3.8259  -3.8241  -3.8040  -3.7579  -3.7413  -3.7293  -3.7263
    -3.7099  -3.5835  -3.5822  -3.4799  -3.4292  -3.3968  -3.3674  -3.2127
    -3.1821  -3.1759  -3.1649  -3.1051  -3.0609  -3.0170  -2.9882  -2.9357
    -2.9339  -2.9120  -2.8168  -2.7544  -2.7526  -2.7134  -2.6275  -2.6159
    -2.6022  -2.5944  -2.5082  -2.5026  -2.4638  -2.4246  -2.4059  -2.3721
    -2.3671  -2.3548  -2.3263  -2.3143  -2.2651  -2.1113  -2.1110  -2.0636
    -2.0242  -2.0036  -1.9303  -1.9069  -1.5515  -1.4945  -1.4548  -1.3854
    -1.3780  -1.2750  -1.2638  -1.2308  -1.2182  -1.1546  -1.1467  -1.0775
    -1.0752  -1.0094  -0.9553  -0.9134  -0.7940  -0.7760  -0.7367  -0.3301
    -0.3284  -0.0116   1.0270   1.0686   1.0951   1.0981   1.1188   1.1286
     1.1368   1.1691   1.2571   1.3016   1.3297   1.3612   1.3873   1.4101
     1.4327   1.4401   1.4792   1.4880   1.4959   1.5045   1.5161   1.5239
     1.5652   1.6065   1.6105   1.6512   1.6614   1.6917   1.7137   1.7731
     1.7900   1.8227

          k = 0.0000-0.5774 0.0000 (287882 PWs)   bands (ev):

   -86.6510 -56.2211 -56.1799 -56.1729 -56.1719 -56.1663 -56.1637 -56.1636
   -56.1627 -56.1624 -56.1594 -56.1589 -56.1572 -56.1554 -56.0986 -56.0914
   -56.0914 -52.9153 -52.9153 -52.5943 -32.4053 -32.4014 -32.3866 -32.3768
   -32.3760 -32.3682 -32.3583 -32.3354 -32.3284 -32.3228 -32.3115 -32.3103
   -32.2954 -32.2720 -32.2702 -32.2582 -32.2527 -32.2475 -32.2432 -32.2407
   -32.2381 -32.2316 -32.2260 -32.2248 -32.2241 -32.2234 -32.2206 -32.2197
   -32.2148 -32.2133 -32.2105 -32.2086 -32.2059 -32.2003 -32.1956 -32.1892
   -32.1797 -32.1793 -32.1767 -32.1730 -32.1616 -32.1512 -32.1471 -32.1389
   -32.1329 -32.1246 -32.1167 -32.1072 -14.7240 -14.5973 -14.3487 -14.3002
   -13.9678 -13.8878 -13.8524 -13.7769 -13.7539 -13.7478 -13.6626 -13.6444
   -13.6357 -13.5985 -13.5099 -13.4638 -13.4073 -13.3715 -13.3623 -13.3545
   -13.3494 -13.3466 -13.3192 -13.2873 -13.2269 -13.2209 -13.1782 -13.1771
   -13.1728 -13.1627 -13.0869 -13.0862  -6.2746  -5.9368  -5.9166  -5.9010
    -5.8940  -5.8474  -5.8226  -5.7859  -5.6231  -5.5330  -5.5115  -5.5034
    -5.4627  -5.4403  -5.4062  -5.3771  -5.3770  -5.3494  -5.3056  -5.2972
    -5.2480  -5.2453  -5.0470  -4.9267  -4.8781  -4.8419  -4.7405  -4.6443
    -4.6373  -4.6146  -4.5858  -4.5787  -4.5450  -4.5412  -4.5315  -4.5300
    -4.5043  -4.4962  -4.4557  -4.4378  -4.2152  -4.2098  -4.0437  -4.0299
    -3.8194  -3.7924  -3.7779  -3.6898  -3.6676  -3.6510  -3.6505  -3.6359
    -3.6359  -3.6074  -3.6069  -3.5982  -3.4690  -3.4580  -3.3440  -3.3304
    -3.3026  -3.1503  -3.1497  -3.1088  -3.0536  -2.9918  -2.8193  -2.8163
    -2.7667  -2.7644  -2.7470  -2.7374  -2.7150  -2.7118  -2.6927  -2.6580
    -2.6330  -2.6175  -2.6173  -2.6146  -2.6075  -2.6071  -2.5423  -2.5358
    -2.3330  -2.3136  -2.3018  -2.2825  -2.2516  -2.2433  -2.0500  -1.9955
    -1.9694  -1.9555  -1.9295  -1.9227  -1.5659  -1.5303  -1.4555  -1.3526
    -1.3435  -1.3259  -1.3166  -1.1888  -1.1685  -1.1465  -1.1375  -1.0829
    -1.0787  -0.9981  -0.9500  -0.8507  -0.7955  -0.7253  -0.7092  -0.3299
    -0.3269  -0.0152   1.0083   1.0436   1.0621   1.0738   1.0788   1.0902
     1.0969   1.1541   1.3244   1.3394   1.3706   1.3789   1.3888   1.3927
     1.4164   1.4508   1.4568   1.4646   1.4971   1.5016   1.5033   1.5264
     1.5598   1.5698   1.5720   1.5992   1.6106   1.6694   1.7054   1.7317
     1.7703   1.8114

          k = 0.1667 0.2887 0.0000 (287748 PWs)   bands (ev):

   -86.6510 -56.2211 -56.1801 -56.1724 -56.1718 -56.1661 -56.1652 -56.1644
   -56.1620 -56.1616 -56.1593 -56.1587 -56.1571 -56.1557 -56.0986 -56.0914
   -56.0914 -52.9153 -52.9153 -52.5943 -32.4092 -32.4044 -32.4023 -32.3690
   -32.3683 -32.3613 -32.3518 -32.3437 -32.3267 -32.3249 -32.3074 -32.2956
   -32.2903 -32.2743 -32.2679 -32.2602 -32.2582 -32.2468 -32.2447 -32.2434
   -32.2384 -32.2343 -32.2316 -32.2291 -32.2257 -32.2231 -32.2193 -32.2161
   -32.2148 -32.2127 -32.2100 -32.2077 -32.2035 -32.2027 -32.1986 -32.1978
   -32.1908 -32.1769 -32.1740 -32.1668 -32.1591 -32.1519 -32.1488 -32.1368
   -32.1336 -32.1238 -32.1112 -32.1066 -14.7845 -14.4844 -14.3817 -14.1768
   -14.1229 -13.9578 -13.8671 -13.8429 -13.7704 -13.7058 -13.6480 -13.6115
   -13.5692 -13.5295 -13.4904 -13.4721 -13.4440 -13.4101 -13.3965 -13.3742
   -13.3268 -13.2869 -13.2839 -13.2665 -13.2334 -13.2184 -13.2064 -13.1916
   -13.1709 -13.1373 -13.1254 -13.0934  -6.3265  -6.0986  -6.0726  -6.0332
    -5.8241  -5.6761  -5.6431  -5.6109  -5.5912  -5.5726  -5.5290  -5.4626
    -5.4279  -5.4145  -5.4069  -5.3722  -5.3631  -5.3512  -5.3280  -5.3030
    -5.2495  -5.2242  -5.0684  -5.0172  -4.8846  -4.8280  -4.7243  -4.6944
    -4.6724  -4.5813  -4.5565  -4.5493  -4.5425  -4.5266  -4.5135  -4.5118
    -4.4912  -4.4562  -4.4299  -4.3970  -4.1623  -4.0882  -4.0443  -4.0258
    -4.0196  -3.8824  -3.8497  -3.7993  -3.7781  -3.7566  -3.7432  -3.6490
    -3.6046  -3.5841  -3.5710  -3.5598  -3.4967  -3.4862  -3.2947  -3.2433
    -3.2413  -3.2142  -3.1092  -3.1036  -3.0662  -3.0225  -3.0119  -2.9728
    -2.9539  -2.8352  -2.7541  -2.7446  -2.7005  -2.6887  -2.6744  -2.6709
    -2.5536  -2.5503  -2.5261  -2.5183  -2.4622  -2.4590  -2.4336  -2.4251
    -2.3548  -2.3114  -2.2295  -2.1957  -2.1906  -2.1420  -2.0808  -2.0699
    -2.0583  -2.0431  -2.0282  -1.9190  -1.4956  -1.4696  -1.4457  -1.3794
    -1.3784  -1.3099  -1.2840  -1.2454  -1.2169  -1.1857  -1.1489  -1.0871
    -1.0490  -0.9787  -0.9522  -0.9176  -0.8989  -0.7744  -0.7286  -0.3305
    -0.3286  -0.0099   1.0227   1.0660   1.0805   1.1031   1.1375   1.1809
     1.2132   1.2410   1.2464   1.2563   1.2835   1.2942   1.4058   1.4281
     1.4344   1.4466   1.4675   1.4846   1.4865   1.5042   1.5223   1.5470
     1.5688   1.6235   1.6522   1.6639   1.6926   1.7062   1.7192   1.7351
     1.7742   1.7816

          k = 0.1667 0.4811 0.0000 (287831 PWs)   bands (ev):

   -86.6510 -56.2211 -56.1799 -56.1728 -56.1721 -56.1659 -56.1645 -56.1636
   -56.1627 -56.1618 -56.1600 -56.1585 -56.1573 -56.1554 -56.0986 -56.0914
   -56.0914 -52.9153 -52.9153 -52.5943 -32.4062 -32.3989 -32.3912 -32.3751
   -32.3739 -32.3663 -32.3558 -32.3437 -32.3342 -32.3183 -32.3136 -32.2981
   -32.2953 -32.2786 -32.2676 -32.2588 -32.2561 -32.2470 -32.2440 -32.2431
   -32.2353 -32.2309 -32.2274 -32.2256 -32.2224 -32.2221 -32.2205 -32.2180
   -32.2148 -32.2139 -32.2106 -32.2084 -32.2046 -32.2018 -32.1947 -32.1902
   -32.1815 -32.1791 -32.1750 -32.1720 -32.1616 -32.1514 -32.1486 -32.1387
   -32.1335 -32.1246 -32.1148 -32.1082 -14.7299 -14.5646 -14.4456 -14.1817
   -14.0282 -13.9073 -13.8621 -13.7712 -13.7483 -13.7179 -13.6886 -13.6564
   -13.5715 -13.5527 -13.5375 -13.4794 -13.4509 -13.4043 -13.3832 -13.3582
   -13.3321 -13.3036 -13.2903 -13.2646 -13.2468 -13.2366 -13.2144 -13.1745
   -13.1586 -13.1378 -13.1082 -13.0745  -6.2765  -5.9819  -5.9340  -5.9025
    -5.8501  -5.8028  -5.7677  -5.7128  -5.6603  -5.6384  -5.5956  -5.5526
    -5.5165  -5.4558  -5.4094  -5.3940  -5.3304  -5.2998  -5.2875  -5.2527
    -5.1798  -5.1171  -5.0872  -4.9070  -4.8970  -4.8265  -4.7760  -4.7258
    -4.6723  -4.6402  -4.6248  -4.5915  -4.5680  -4.5424  -4.5214  -4.5154
    -4.4943  -4.4671  -4.4485  -4.4431  -4.2533  -4.2272  -3.9416  -3.9289
    -3.8226  -3.7946  -3.7434  -3.7177  -3.6835  -3.6691  -3.6559  -3.6528
    -3.6284  -3.5864  -3.5570  -3.4993  -3.4696  -3.4379  -3.4013  -3.3505
    -3.3407  -3.3280  -3.2128  -3.1248  -3.0533  -2.9852  -2.8134  -2.7982
    -2.7799  -2.7719  -2.7607  -2.7469  -2.7169  -2.6967  -2.6814  -2.6639
    -2.6513  -2.5970  -2.5823  -2.5673  -2.5473  -2.5221  -2.4682  -2.4401
    -2.4294  -2.3870  -2.3658  -2.2550  -2.2135  -2.1579  -2.1360  -2.0850
    -2.0456  -1.9626  -1.9339  -1.8972  -1.4973  -1.4556  -1.4438  -1.3976
    -1.3276  -1.3135  -1.2975  -1.2742  -1.2402  -1.2040  -1.1016  -1.0604
    -1.0057  -0.9634  -0.9250  -0.8784  -0.8318  -0.7862  -0.6452  -0.3306
    -0.3260  -0.0154   0.9679   0.9905   1.0173   1.0451   1.1302   1.1810
     1.2009   1.2199   1.2749   1.3056   1.3153   1.3416   1.3653   1.3884
     1.4104   1.4395   1.4684   1.4868   1.5019   1.5200   1.5344   1.5375
     1.5577   1.5689   1.5855   1.6134   1.6336   1.6589   1.6772   1.6858
     1.7169   1.7470

          k = 0.3333 0.5774 0.0000 (287970 PWs)   bands (ev):

   -86.6510 -56.2211 -56.1799 -56.1728 -56.1724 -56.1653 -56.1646 -56.1639
   -56.1626 -56.1613 -56.1608 -56.1581 -56.1576 -56.1553 -56.0986 -56.0914
   -56.0914 -52.9153 -52.9153 -52.5943 -32.4053 -32.3937 -32.3891 -32.3782
   -32.3757 -32.3654 -32.3554 -32.3510 -32.3380 -32.3207 -32.3049 -32.2965
   -32.2954 -32.2822 -32.2743 -32.2589 -32.2524 -32.2448 -32.2439 -32.2436
   -32.2389 -32.2298 -32.2274 -32.2237 -32.2209 -32.2190 -32.2182 -32.2182
   -32.2163 -32.2136 -32.2127 -32.2070 -32.2039 -32.2038 -32.1927 -32.1881
   -32.1815 -32.1783 -32.1748 -32.1708 -32.1623 -32.1514 -32.1512 -32.1392
   -32.1341 -32.1249 -32.1134 -32.1104 -14.7036 -14.5445 -14.5382 -14.0928
   -14.0144 -13.9924 -13.8357 -13.7894 -13.7454 -13.6871 -13.6692 -13.6114
   -13.5683 -13.5670 -13.5600 -13.4929 -13.4770 -13.4626 -13.3613 -13.3558
   -13.3104 -13.2721 -13.2717 -13.2654 -13.2625 -13.2561 -13.2546 -13.1657
   -13.1449 -13.1229 -13.1204 -13.0664  -6.2589  -5.8887  -5.8459  -5.8443
    -5.7934  -5.7705  -5.7686  -5.7524  -5.7412  -5.7308  -5.7266  -5.7162
    -5.5755  -5.4358  -5.4353  -5.4250  -5.2734  -5.2581  -5.2537  -5.1642
    -5.0561  -5.0147  -5.0102  -4.9460  -4.9360  -4.9336  -4.8076  -4.7849
    -4.7146  -4.6607  -4.6313  -4.6101  -4.5972  -4.5795  -4.5792  -4.5703
    -4.5046  -4.4875  -4.4609  -4.2951  -4.1830  -4.1454  -4.1272  -3.7986
    -3.7769  -3.7141  -3.7020  -3.6867  -3.6381  -3.6359  -3.6103  -3.6085
    -3.6052  -3.5448  -3.5410  -3.5223  -3.5192  -3.5180  -3.5110  -3.3973
    -3.2611  -3.2371  -3.2325  -3.2099  -3.2060  -3.0701  -2.9317  -2.7870
    -2.7797  -2.7048  -2.7004  -2.7002  -2.6641  -2.6272  -2.6256  -2.6166
    -2.6155  -2.5712  -2.5377  -2.5214  -2.5016  -2.4991  -2.4921  -2.4765
    -2.4060  -2.3965  -2.3815  -2.3719  -2.3696  -2.3641  -2.1402  -2.1121
    -2.0535  -1.9320  -1.8977  -1.8654  -1.4540  -1.3831  -1.3808  -1.3721
    -1.3614  -1.3511  -1.3364  -1.2968  -1.2763  -1.2615  -1.0593  -1.0532
    -0.9642  -0.9170  -0.9078  -0.8560  -0.8454  -0.8374  -0.5946  -0.3309
    -0.3244  -0.0174   0.9154   0.9597   0.9821   1.0136   1.1858   1.2503
     1.2531   1.2804   1.2867   1.2965   1.3071   1.3117   1.3235   1.3548
     1.3573   1.4058   1.4489   1.4699   1.4791   1.5095   1.5384   1.5802
     1.5871   1.6050   1.6146   1.6257   1.6292   1.6393   1.6471   1.6547
     1.6728   1.6796

     the Fermi energy is    -1.1673 ev

!    total energy              =  -11738.77044326 Ry
     Harris-Foulkes estimate   =  -11738.77044311 Ry
     estimated scf accuracy    <       0.00000008 Ry

     total all-electron energy =   -280313.943755 Ry

     The total energy is the sum of the following terms:

     one-electron contribution =  -17994.29613071 Ry
     hartree contribution      =    9033.65642031 Ry
     xc contribution           =    -537.62608583 Ry
     ewald contribution        =    6758.33516108 Ry
     one-center paw contrib.   =   -8998.82728750 Ry
     smearing contrib. (-TS)   =      -0.01252061 Ry

     total magnetization       =     4.98 Bohr mag/cell
     absolute magnetization    =     6.16 Bohr mag/cell

     convergence has been achieved in  34 iterations

     negative rho (up, down):  4.371E-04 2.947E-02

     Forces acting on atoms (cartesian axes, Ry/au):

     atom    1 type  1   force =     0.00000000    0.00000000   -0.07260022
     atom    2 type  2   force =     0.00000000    0.00000000    0.00037290
     atom    3 type  3   force =     0.00027847    0.00016077    0.00408188
     atom    4 type  3   force =     0.00016352    0.00009441   -0.00441715
     atom    5 type  2   force =    -0.00005049    0.00067261   -0.00028673
     atom    6 type  3   force =     0.00127474   -0.00040373    0.00551666
     atom    7 type  3   force =    -0.00024264    0.00033260   -0.00264904
     atom    8 type  2   force =     0.00000000   -0.00602891    0.00570697
     atom    9 type  3   force =    -0.00127474   -0.00040373    0.00551666
     atom   10 type  3   force =     0.00024264    0.00033260   -0.00264904
     atom   11 type  2   force =     0.00005049    0.00067261   -0.00028673
     atom   12 type  3   force =    -0.00027847    0.00016077    0.00408188
     atom   13 type  3   force =    -0.00016352    0.00009441   -0.00441715
     atom   14 type  2   force =    -0.00095767    0.00055291   -0.00128634
     atom   15 type  3   force =    -0.00028773    0.00130582    0.00551666
     atom   16 type  3   force =    -0.00016672   -0.00037644   -0.00264904
     atom   17 type  2   force =     0.00000000   -0.00110582   -0.00128634
     atom   18 type  3   force =     0.00098701   -0.00090209    0.00551666
     atom   19 type  3   force =    -0.00040937    0.00004383   -0.00264904
     atom   20 type  2   force =     0.00060774   -0.00029258   -0.00028673
     atom   21 type  3   force =     0.00000000   -0.00032155    0.00408188
     atom   22 type  3   force =    -0.00000000   -0.00018882   -0.00441715
     atom   23 type  2   force =     0.00050106    0.00028929    0.00621630
     atom   24 type  3   force =    -0.00008545   -0.00004934    0.00286843
     atom   25 type  3   force =     0.00110365    0.00063719   -0.00321486
     atom   26 type  2   force =    -0.00050106    0.00028929    0.00621630
     atom   27 type  3   force =     0.00000000    0.00022319    0.01008140
     atom   28 type  3   force =     0.00000000    0.00056428   -0.00153955
     atom   29 type  2   force =    -0.00060774   -0.00029258   -0.00028673
     atom   30 type  3   force =     0.00008545   -0.00004934    0.00286843
     atom   31 type  3   force =    -0.00110365    0.00063719   -0.00321486
     atom   32 type  2   force =     0.00095767    0.00055291   -0.00128634
     atom   33 type  3   force =     0.00000000    0.00000000    0.00397762
     atom   34 type  3   force =     0.00000000    0.00000000   -0.00272693
     atom   35 type  2   force =    -0.00522119    0.00301446    0.00570697
     atom   36 type  3   force =    -0.00098701   -0.00090209    0.00551666
     atom   37 type  3   force =     0.00040937    0.00004383   -0.00264904
     atom   38 type  2   force =     0.00000000   -0.00057858    0.00621630
     atom   39 type  3   force =     0.00019329   -0.00011160    0.01008140
     atom   40 type  3   force =     0.00048868   -0.00028214   -0.00153955
     atom   41 type  2   force =     0.00055725   -0.00038003   -0.00028673
     atom   42 type  3   force =     0.00028773    0.00130582    0.00551666
     atom   43 type  3   force =     0.00016672   -0.00037644   -0.00264904
     atom   44 type  2   force =    -0.00055725   -0.00038003   -0.00028673
     atom   45 type  3   force =    -0.00000000    0.00009867    0.00286843
     atom   46 type  3   force =    -0.00000000   -0.00127439   -0.00321486
     atom   47 type  2   force =     0.00522119    0.00301446    0.00570697
     atom   48 type  3   force =    -0.00019329   -0.00011160    0.01008140
     atom   49 type  3   force =    -0.00048868   -0.00028214   -0.00153955

     Total force =     0.079680     Total SCF correction =     0.000496


     Computing stress (Cartesian axis) and pressure


     negative rho (up, down):  4.371E-04 2.947E-02
          total   stress  (Ry/bohr**3)                   (kbar)     P=    0.67
   0.00002498  -0.00000000   0.00000000          3.67     -0.00      0.00
  -0.00000000   0.00002498   0.00000000         -0.00      3.67      0.00
   0.00000000   0.00000000  -0.00003624          0.00      0.00     -5.33


     BFGS Geometry Optimization

     number of scf cycles    =   1
     number of bfgs steps    =   0

     energy   new            =  -11738.7704432649 Ry

     new trust radius        =       0.0726002229 bohr
     new conv_thr            =       0.0000001000 Ry


ATOMIC_POSITIONS (crystal)
Fe       0.333333333   0.666666667   0.224902073
Nb       0.000000000   0.000000000   0.070980081
Se       0.166715082   0.083357541  -0.000786248
Se       0.166848600   0.083424299   0.142665567
Nb       0.250376604   0.000146435   0.070919939
Se       0.416875875   0.083126746  -0.000678498
Se       0.416765706   0.083759171   0.142686429
Nb       0.500212123   0.000424246   0.071649205
Se       0.666250872   0.083126746  -0.000678498
Se       0.666993465   0.083759171   0.142686429
Nb       0.749769832   0.000146435   0.070919939
Se       0.916642459   0.083357541  -0.000786248
Se       0.916575701   0.083424299   0.142665567
Nb       0.749840007   0.250159993   0.071053055
Se       0.916873254   0.333749128  -0.000678498
Se       0.916240829   0.333006535   0.142686429
Nb       0.749840007   0.499680014   0.071053055
Se       0.916873254   0.583124125  -0.000678498
Se       0.916240829   0.583234294   0.142686429
Nb       0.749769832   0.749623396   0.070919939
Se       0.916642459   0.833284918  -0.000786248
Se       0.916575701   0.833151400   0.142665567
Nb       0.501355327   0.750677663   0.071291648
Se       0.666370485   0.833185242  -0.000642858
Se       0.666844262   0.833422130   0.142759912
Nb       0.249322337   0.750677663   0.071291648
Se       0.416628676   0.833257352  -0.000246324
Se       0.414597556   0.829195110   0.145392069
Nb      -0.000146435   0.749623396   0.070919939
Se       0.166814758   0.833185242  -0.000642858
Se       0.166577870   0.833422130   0.142759912
Nb       0.500319986   0.250159993   0.071053055
Se       0.666666667   0.333333333  -0.000654256
Se       0.666666667   0.333333333   0.142719220
Nb       0.500212123   0.499787877   0.071649205
Se       0.666250872   0.583124125  -0.000678498
Se       0.666993465   0.583234294   0.142686429
Nb       0.249322337   0.498644673   0.071291648
Se       0.416628676   0.583371324  -0.000246324
Se       0.414597556   0.585402444   0.145392069
Nb       0.250376604   0.250230168   0.070919939
Se       0.416875875   0.333749128  -0.000678498
Se       0.416765706   0.333006535   0.142686429
Nb      -0.000146435   0.250230168   0.070919939
Se       0.166814758   0.333629515  -0.000642858
Se       0.166577870   0.333155738   0.142759912
Nb      -0.000424246   0.499787877   0.071649205
Se       0.166742648   0.583371324  -0.000246324
Se       0.170804890   0.585402444   0.145392069



     Writing output data file adatom.save/
     NEW-OLD atomic charge density approx. for the potential

     negative rho (up, down):  4.932E-04 8.923E-03

     total cpu time spent up to now is     2617.5 secs

     Self-consistent Calculation

     iteration #  1     ecut=    75.00 Ry     beta= 0.70
     Davidson diagonalization with overlap
     ethr =  1.00E-06,  avg # of iterations =  5.0

     negative rho (up, down):  3.077E-04 1.416E-01

     total cpu time spent up to now is     2743.2 secs

     total energy              =  -11738.77227663 Ry
     Harris-Foulkes estimate   =  -11738.77163599 Ry
     estimated scf accuracy    <       0.02583464 Ry

     total magnetization       =     5.07 Bohr mag/cell
     absolute magnetization    =     6.26 Bohr mag/cell

     iteration #  2     ecut=    75.00 Ry     beta= 0.70
     Davidson diagonalization with overlap
     ethr =  6.21E-06,  avg # of iterations =  3.0

     negative rho (up, down):  1.795E-02 2.340E-01

     total cpu time spent up to now is     2811.8 secs

     total energy              =  -11738.75983569 Ry
     Harris-Foulkes estimate   =  -11738.79199612 Ry
     estimated scf accuracy    <       1.20359950 Ry

     total magnetization       =     3.89 Bohr mag/cell
     absolute magnetization    =     5.08 Bohr mag/cell

     iteration #  3     ecut=    75.00 Ry     beta= 0.70
     Davidson diagonalization with overlap
     ethr =  6.21E-06,  avg # of iterations =  3.0

     negative rho (up, down):  2.760E-03 1.513E-01

     total cpu time spent up to now is     2880.0 secs

     total energy              =  -11738.77653051 Ry
     Harris-Foulkes estimate   =  -11738.77533509 Ry
     estimated scf accuracy    <       0.00102608 Ry

     total magnetization       =     4.95 Bohr mag/cell
     absolute magnetization    =     6.15 Bohr mag/cell

     iteration #  4     ecut=    75.00 Ry     beta= 0.70
     Davidson diagonalization with overlap
     ethr =  2.47E-07,  avg # of iterations =  3.0

     negative rho (up, down):  1.070E-03 7.987E-02

     total cpu time spent up to now is     2952.7 secs

     total energy              =  -11738.77665081 Ry
     Harris-Foulkes estimate   =  -11738.77660670 Ry
     estimated scf accuracy    <       0.00031429 Ry

     total magnetization       =     4.90 Bohr mag/cell
     absolute magnetization    =     6.11 Bohr mag/cell

     iteration #  5     ecut=    75.00 Ry     beta= 0.70
     Davidson diagonalization with overlap
     ethr =  7.55E-08,  avg # of iterations =  1.6

     negative rho (up, down):  6.850E-04 4.358E-02

     total cpu time spent up to now is     3014.5 secs

     total energy              =  -11738.77666138 Ry
     Harris-Foulkes estimate   =  -11738.77665676 Ry
     estimated scf accuracy    <       0.00018296 Ry

     total magnetization       =     4.90 Bohr mag/cell
     absolute magnetization    =     6.12 Bohr mag/cell

     iteration #  6     ecut=    75.00 Ry     beta= 0.70
     Davidson diagonalization with overlap
     ethr =  4.40E-08,  avg # of iterations =  1.0

     negative rho (up, down):  5.915E-04 3.144E-02

     total cpu time spent up to now is     3075.7 secs

     total energy              =  -11738.77666444 Ry
     Harris-Foulkes estimate   =  -11738.77666332 Ry
     estimated scf accuracy    <       0.00002047 Ry

     total magnetization       =     4.90 Bohr mag/cell
     absolute magnetization    =     6.13 Bohr mag/cell

     iteration #  7     ecut=    75.00 Ry     beta= 0.70
     Davidson diagonalization with overlap
     ethr =  4.92E-09,  avg # of iterations =  3.0

     negative rho (up, down):  5.724E-04 2.902E-02

     total cpu time spent up to now is     3143.4 secs

     total energy              =  -11738.77666551 Ry
     Harris-Foulkes estimate   =  -11738.77666516 Ry
     estimated scf accuracy    <       0.00000086 Ry

     total magnetization       =     4.90 Bohr mag/cell
     absolute magnetization    =     6.13 Bohr mag/cell

     iteration #  8     ecut=    75.00 Ry     beta= 0.70
     Davidson diagonalization with overlap
     ethr =  2.06E-10,  avg # of iterations =  4.0

     negative rho (up, down):  5.676E-04 2.875E-02

     total cpu time spent up to now is     3224.6 secs

     total energy              =  -11738.77666584 Ry
     Harris-Foulkes estimate   =  -11738.77666573 Ry
     estimated scf accuracy    <       0.00000012 Ry

     total magnetization       =     4.89 Bohr mag/cell
     absolute magnetization    =     6.14 Bohr mag/cell

     iteration #  9     ecut=    75.00 Ry     beta= 0.70
     Davidson diagonalization with overlap
     ethr =  2.78E-11,  avg # of iterations =  3.3

     negative rho (up, down):  4.358E-04 2.865E-02
 
     Magnetic moment per site:
     atom:    1    charge:   14.4369    magn:    3.2831    constr:    0.0000
     atom:    2    charge:   10.0887    magn:   -0.1101    constr:    0.0000
     atom:    3    charge:    4.0288    magn:    0.0015    constr:    0.0000
     atom:    4    charge:    4.0306    magn:    0.0005    constr:    0.0000
     atom:    5    charge:   10.0920    magn:   -0.0048    constr:    0.0000
     atom:    6    charge:    4.0271    magn:    0.0041    constr:    0.0000
     atom:    7    charge:    4.0366    magn:    0.0022    constr:    0.0000
     atom:    8    charge:   10.0888    magn:    0.1055    constr:    0.0000
     atom:    9    charge:    4.0271    magn:    0.0041    constr:    0.0000
     atom:   10    charge:    4.0366    magn:    0.0022    constr:    0.0000
     atom:   11    charge:   10.0920    magn:   -0.0048    constr:    0.0000
     atom:   12    charge:    4.0288    magn:    0.0015    constr:    0.0000
[...]
    -2.8072  -2.8008  -2.7861  -2.7462  -2.7352  -2.7289  -2.7003  -2.6620
    -2.5712  -2.4599  -2.4517  -2.4234  -2.3931  -2.3738  -2.2221  -2.1930
    -2.1676  -2.1310  -2.0721  -2.0327  -1.8468  -1.6780  -1.6405  -1.6137
    -1.5052  -1.4520  -1.3831  -1.3755  -1.2906  -1.2889  -1.2207  -1.2087
    -1.1146  -0.9773  -0.9371  -0.9054  -0.8296  -0.7965  -0.7741  -0.6798
    -0.6414   0.6368   0.8935   0.9093   0.9619   1.0107   1.0111   1.0748
     1.0756   1.1799   1.2174   1.2356   1.2609   1.2722   1.3074   1.3374
     1.3498   1.3503   1.3808   1.3954   1.4110   1.4124   1.4515   1.4667
     1.4769   1.4870   1.4961   1.5242   1.5427   1.6631   1.6700   1.6796
     1.7028   1.7204

          k = 0.1667 0.2887 0.0000 (287748 PWs)   bands (ev):

   -87.1264 -56.3083 -56.2987 -56.2987 -56.2863 -56.2683 -56.2674 -56.2671
   -56.2427 -56.2412 -56.2409 -56.2351 -56.2350 -56.2322 -56.2266 -56.2209
   -56.2208 -53.3117 -53.3117 -53.2611 -32.5311 -32.5262 -32.5253 -32.4864
   -32.4759 -32.4715 -32.4593 -32.4545 -32.4486 -32.4441 -32.4223 -32.4091
   -32.3928 -32.3870 -32.3808 -32.3734 -32.3701 -32.3667 -32.3644 -32.3603
   -32.3567 -32.3496 -32.3476 -32.3405 -32.3357 -32.3280 -32.3235 -32.3212
   -32.3180 -32.3124 -32.3114 -32.3101 -32.3088 -32.3067 -32.3040 -32.3016
   -32.2996 -32.2948 -32.2904 -32.2800 -32.2688 -32.2668 -32.2585 -32.2583
   -32.2411 -32.2344 -32.2245 -32.2155 -15.2512 -14.8249 -14.7510 -14.5977
   -14.4507 -14.2992 -14.1571 -14.0928 -13.9778 -13.9484 -13.8193 -13.7653
   -13.7585 -13.6833 -13.6410 -13.6218 -13.6079 -13.5533 -13.5478 -13.5244
   -13.4932 -13.4538 -13.4363 -13.4230 -13.3771 -13.3681 -13.3509 -13.3391
   -13.3233 -13.2717 -13.2543 -13.2334  -6.9240  -6.3709  -6.3531  -6.3187
    -6.1265  -6.0100  -5.9356  -5.8953  -5.8632  -5.8292  -5.7729  -5.7232
    -5.6903  -5.6699  -5.6328  -5.5909  -5.5660  -5.5406  -5.5204  -5.4929
    -5.4653  -5.4101  -5.3288  -5.3229  -5.2345  -5.1406  -4.9627  -4.9243
    -4.8675  -4.8180  -4.7660  -4.7580  -4.7320  -4.7150  -4.6833  -4.6699
    -4.6516  -4.6329  -4.5815  -4.5758  -4.4675  -4.4240  -4.3221  -4.2862
    -4.2492  -4.1597  -4.1484  -4.0072  -3.9575  -3.9157  -3.9074  -3.8534
    -3.8353  -3.8039  -3.7868  -3.7198  -3.7040  -3.6752  -3.6568  -3.5495
    -3.4715  -3.4204  -3.3461  -3.3279  -3.3116  -3.2525  -3.2268  -3.1972
    -3.1168  -3.0706  -2.9387  -2.9128  -2.8723  -2.8358  -2.8236  -2.7761
    -2.7591  -2.7390  -2.7182  -2.6533  -2.6461  -2.6208  -2.5795  -2.5331
    -2.5039  -2.4775  -2.4451  -2.4133  -2.3153  -2.2910  -2.2664  -2.2454
    -2.2162  -2.1864  -2.1636  -2.0756  -1.7888  -1.7273  -1.6418  -1.5498
    -1.5216  -1.4382  -1.4035  -1.3640  -1.3419  -1.3143  -1.2229  -1.1972
    -1.1288  -1.1044  -0.9874  -0.8721  -0.8368  -0.8223  -0.7977  -0.6926
    -0.6646   0.6592   0.9143   0.9862   1.0384   1.0720   1.0920   1.0949
     1.1310   1.1494   1.1651   1.2008   1.2177   1.2708   1.3013   1.3203
     1.3555   1.3755   1.3809   1.3903   1.4085   1.4283   1.4818   1.5006
     1.5101   1.5567   1.5630   1.5736   1.6108   1.6217   1.6290   1.6550
     1.6860   1.7370

          k = 0.1667 0.4811 0.0000 (287831 PWs)   bands (ev):

   -87.1264 -56.3083 -56.2987 -56.2987 -56.2863 -56.2684 -56.2674 -56.2670
   -56.2428 -56.2411 -56.2408 -56.2353 -56.2351 -56.2321 -56.2265 -56.2210
   -56.2208 -53.3117 -53.3117 -53.2611 -32.5290 -32.5221 -32.5181 -32.4923
   -32.4808 -32.4754 -32.4597 -32.4578 -32.4465 -32.4375 -32.4326 -32.4118
   -32.3931 -32.3893 -32.3867 -32.3735 -32.3708 -32.3658 -32.3637 -32.3597
   -32.3548 -32.3490 -32.3458 -32.3369 -32.3305 -32.3274 -32.3244 -32.3208
   -32.3173 -32.3119 -32.3105 -32.3091 -32.3077 -32.3070 -32.3025 -32.3010
   -32.3002 -32.2935 -32.2868 -32.2733 -32.2715 -32.2669 -32.2605 -32.2550
   -32.2432 -32.2344 -32.2337 -32.2166 -15.2380 -14.8518 -14.7714 -14.5602
   -14.4782 -14.3232 -14.1545 -14.0256 -13.9188 -13.8724 -13.8529 -13.8054
   -13.7668 -13.7196 -13.6891 -13.6450 -13.6099 -13.5702 -13.5437 -13.5107
   -13.4711 -13.4531 -13.4465 -13.4074 -13.3955 -13.3877 -13.3526 -13.3282
   -13.3193 -13.2690 -13.2428 -13.2179  -6.8987  -6.2981  -6.2602  -6.2364
    -6.1295  -6.0378  -5.9957  -5.9782  -5.9348  -5.8438  -5.8302  -5.7990
    -5.7513  -5.7311  -5.6663  -5.6012  -5.5497  -5.5188  -5.4998  -5.4699
    -5.4439  -5.3530  -5.3258  -5.2539  -5.2100  -5.0538  -5.0130  -4.9678
    -4.8915  -4.8167  -4.7872  -4.7531  -4.7444  -4.7312  -4.7089  -4.6916
    -4.6758  -4.6665  -4.6481  -4.6053  -4.4846  -4.4402  -4.3774  -4.2710
    -4.1332  -4.1208  -3.9816  -3.9371  -3.8978  -3.8762  -3.8433  -3.8340
    -3.8071  -3.7912  -3.7674  -3.7264  -3.6772  -3.6420  -3.6117  -3.5715
    -3.5476  -3.4921  -3.4456  -3.3738  -3.3196  -3.2232  -3.1219  -3.0762
    -2.9980  -2.9627  -2.9329  -2.9166  -2.8873  -2.8582  -2.8478  -2.8275
    -2.7952  -2.7626  -2.7494  -2.7371  -2.6956  -2.6610  -2.6367  -2.6131
    -2.5497  -2.5253  -2.5157  -2.4605  -2.3807  -2.3357  -2.2748  -2.2586
    -2.1943  -2.1476  -2.0772  -2.0137  -1.7886  -1.6881  -1.6250  -1.5785
    -1.4973  -1.4472  -1.4323  -1.3930  -1.3517  -1.2774  -1.2132  -1.1370
    -1.0991  -1.0112  -0.9407  -0.9024  -0.8470  -0.8139  -0.7364  -0.6755
    -0.6439   0.6326   0.8071   0.9384   0.9772   1.0377   1.0500   1.0948
     1.1494   1.1692   1.1852   1.2090   1.2521   1.2558   1.2801   1.3213
     1.3306   1.3555   1.3712   1.4089   1.4237   1.4436   1.4552   1.4615
     1.4744   1.4984   1.5220   1.5371   1.5714   1.5784   1.5937   1.6151
     1.6392   1.6630

          k = 0.3333 0.5774 0.0000 (287970 PWs)   bands (ev):

   -87.1264 -56.3083 -56.2987 -56.2987 -56.2863 -56.2685 -56.2674 -56.2670
   -56.2429 -56.2409 -56.2408 -56.2353 -56.2352 -56.2320 -56.2264 -56.2210
   -56.2208 -53.3117 -53.3117 -53.2611 -32.5282 -32.5204 -32.5152 -32.4950
   -32.4828 -32.4704 -32.4663 -32.4609 -32.4438 -32.4416 -32.4300 -32.4066
   -32.3936 -32.3929 -32.3917 -32.3739 -32.3714 -32.3637 -32.3610 -32.3597
   -32.3554 -32.3482 -32.3475 -32.3379 -32.3283 -32.3264 -32.3255 -32.3186
   -32.3182 -32.3112 -32.3106 -32.3096 -32.3068 -32.3044 -32.3013 -32.3012
   -32.3003 -32.2904 -32.2904 -32.2727 -32.2721 -32.2644 -32.2580 -32.2520
   -32.2512 -32.2348 -32.2344 -32.2174 -15.2335 -14.8429 -14.8031 -14.5420
   -14.4668 -14.3608 -14.0913 -14.0311 -13.9886 -13.8418 -13.8279 -13.7767
   -13.7294 -13.7206 -13.7088 -13.6780 -13.6266 -13.6182 -13.5443 -13.5118
   -13.4590 -13.4317 -13.4183 -13.4105 -13.4067 -13.3888 -13.3877 -13.3200
   -13.3139 -13.2605 -13.2463 -13.2114  -6.8900  -6.2770  -6.2283  -6.1889
    -6.0815  -6.0347  -5.9870  -5.9834  -5.9575  -5.9194  -5.9071  -5.8887
    -5.7926  -5.7567  -5.6841  -5.6071  -5.5065  -5.4883  -5.4827  -5.4567
    -5.3952  -5.2905  -5.2647  -5.1916  -5.1557  -5.1001  -5.0856  -5.0416
    -4.9510  -4.8442  -4.8391  -4.7643  -4.7544  -4.7452  -4.7370  -4.7250
    -4.6839  -4.6766  -4.6149  -4.4839  -4.4550  -4.4266  -4.3842  -4.3567
    -4.1222  -4.0113  -3.9295  -3.9082  -3.8748  -3.8647  -3.8056  -3.8024
    -3.7801  -3.7614  -3.7419  -3.7411  -3.7038  -3.6924  -3.6788  -3.5366
    -3.5304  -3.4868  -3.4399  -3.4189  -3.3485  -3.3031  -3.1993  -3.0815
    -2.9835  -2.9313  -2.9181  -2.9114  -2.8564  -2.8417  -2.8270  -2.7948
    -2.7691  -2.7403  -2.7071  -2.6680  -2.6610  -2.6251  -2.6054  -2.5926
    -2.5788  -2.5770  -2.5640  -2.5331  -2.5166  -2.5128  -2.2799  -2.2435
    -2.2127  -2.1311  -2.0447  -1.9802  -1.7370  -1.6822  -1.6393  -1.5094
    -1.4849  -1.4731  -1.4444  -1.4252  -1.4159  -1.2534  -1.1687  -1.1553
    -1.0116  -0.9941  -0.9620  -0.9311  -0.8542  -0.8130  -0.6937  -0.6668
    -0.6394   0.6200   0.7447   0.9131   0.9423   1.0577   1.0991   1.1276
     1.1661   1.1806   1.2072   1.2183   1.2276   1.2347   1.2530   1.3099
     1.3232   1.3344   1.3489   1.3774   1.4000   1.4452   1.4605   1.4706
     1.4991   1.5097   1.5220   1.5283   1.5406   1.5548   1.5675   1.5779
     1.6039   1.6116

     the Fermi energy is    -1.2790 ev

!    total energy              =  -11738.85858986 Ry
     Harris-Foulkes estimate   =  -11738.85858970 Ry
     estimated scf accuracy    <       0.00000002 Ry

     total all-electron energy =   -280314.031901 Ry

     The total energy is the sum of the following terms:

     one-electron contribution =  -18455.04128501 Ry
     hartree contribution      =    9261.79670124 Ry
     xc contribution           =    -538.35734551 Ry
     ewald contribution        =    6991.66486322 Ry
     one-center paw contrib.   =   -8998.91277811 Ry
     smearing contrib. (-TS)   =      -0.00874569 Ry

     total magnetization       =     5.03 Bohr mag/cell
     absolute magnetization    =     5.71 Bohr mag/cell

     convergence has been achieved in  20 iterations

     negative rho (up, down):  3.679E-04 1.492E-02

     Forces acting on atoms (cartesian axes, Ry/au):

     atom    1 type  1   force =     0.00000000    0.00000000    0.00530790
     atom    2 type  2   force =     0.00000000    0.00000000   -0.00177036
     atom    3 type  3   force =     0.00075176    0.00043403   -0.00420403
     atom    4 type  3   force =    -0.00047504   -0.00027426    0.00486098
     atom    5 type  2   force =     0.00072986   -0.00191979    0.00169332
     atom    6 type  3   force =    -0.00059951   -0.00000898   -0.00617814
     atom    7 type  3   force =    -0.00193101    0.00132163    0.00641913
     atom    8 type  2   force =     0.00000000    0.01686868   -0.01563502
     atom    9 type  3   force =     0.00059951   -0.00000898   -0.00617814
     atom   10 type  3   force =     0.00193101    0.00132163    0.00641913
     atom   11 type  2   force =    -0.00072986   -0.00191979    0.00169332
     atom   12 type  3   force =    -0.00075176    0.00043403   -0.00420403
     atom   13 type  3   force =     0.00047504   -0.00027426    0.00486098
     atom   14 type  2   force =    -0.00026690    0.00015409    0.00190382
     atom   15 type  3   force =     0.00030753   -0.00051470   -0.00617814
     atom   16 type  3   force =    -0.00017906   -0.00233312    0.00641913
     atom   17 type  2   force =     0.00000000   -0.00030819    0.00190382
     atom   18 type  3   force =    -0.00029198    0.00052368   -0.00617814
     atom   19 type  3   force =    -0.00211007    0.00101148    0.00641913
     atom   20 type  2   force =    -0.00202752    0.00032782    0.00169332
     atom   21 type  3   force =    -0.00000000   -0.00086805   -0.00420403
     atom   22 type  3   force =     0.00000000    0.00054853    0.00486098
     atom   23 type  2   force =    -0.00238052   -0.00137439    0.00145902
     atom   24 type  3   force =    -0.00133490   -0.00077071   -0.00193211
     atom   25 type  3   force =     0.00145182    0.00083821    0.00898168
     atom   26 type  2   force =     0.00238052   -0.00137439    0.00145902
     atom   27 type  3   force =     0.00000000   -0.00334137   -0.01060707
     atom   28 type  3   force =    -0.00000000    0.04711319    0.00958331
     atom   29 type  2   force =     0.00202752    0.00032782    0.00169332
     atom   30 type  3   force =     0.00133490   -0.00077071   -0.00193211
     atom   31 type  3   force =    -0.00145182    0.00083821    0.00898168
     atom   32 type  2   force =     0.00026690    0.00015409    0.00190382
     atom   33 type  3   force =     0.00000000   -0.00000000   -0.00455424
     atom   34 type  3   force =     0.00000000   -0.00000000    0.00617914
     atom   35 type  2   force =     0.01460870   -0.00843434   -0.01563502
     atom   36 type  3   force =     0.00029198    0.00052368   -0.00617814
     atom   37 type  3   force =     0.00211007    0.00101148    0.00641913
     atom   38 type  2   force =     0.00000000    0.00274878    0.00145902
     atom   39 type  3   force =    -0.00289371    0.00167068   -0.01060707
     atom   40 type  3   force =     0.04080122   -0.02355659    0.00958331
     atom   41 type  2   force =    -0.00129766    0.00159198    0.00169332
     atom   42 type  3   force =    -0.00030753   -0.00051470   -0.00617814
     atom   43 type  3   force =     0.00017906   -0.00233312    0.00641913
     atom   44 type  2   force =     0.00129766    0.00159198    0.00169332
     atom   45 type  3   force =     0.00000000    0.00154141   -0.00193211
     atom   46 type  3   force =    -0.00000000   -0.00167641    0.00898168
     atom   47 type  2   force =    -0.01460870   -0.00843434   -0.01563502
     atom   48 type  3   force =     0.00289371    0.00167068   -0.01060707
     atom   49 type  3   force =    -0.04080122   -0.02355659    0.00958331

     Total force =     0.099863     Total SCF correction =     0.000349


     Computing stress (Cartesian axis) and pressure


     negative rho (up, down):  3.679E-04 1.492E-02
          total   stress  (Ry/bohr**3)                   (kbar)     P=    6.87
   0.00005756  -0.00000000   0.00000000          8.47     -0.00      0.00
   0.00000000   0.00005756   0.00000000          0.00      8.47      0.00
   0.00000000   0.00000000   0.00002506          0.00      0.00      3.69


     number of scf cycles    =   9
     number of bfgs steps    =   8

     energy   old            =  -11738.8455115348 Ry
     energy   new            =  -11738.8585898613 Ry

     CASE: energy  _new < energy  _old

     new trust radius        =       0.7079363833 bohr
     new conv_thr            =       0.0000000471 Ry


ATOMIC_POSITIONS (crystal)
Fe       0.333333333   0.666666667   0.165289751
Nb       0.000000000   0.000000000   0.070913065
Se       0.167473289   0.083736645  -0.000003558
Se       0.167000822   0.083500410   0.141627132
Nb       0.250713110  -0.000665405   0.071021769
Se       0.418812780   0.081805364   0.001708328
Se       0.416302316   0.085247124   0.143116075
Nb       0.498663171  -0.002673658   0.074324213
Se       0.662992585   0.081805364   0.001708328
Se       0.668944808   0.085247124   0.143116075
Nb       0.748621485  -0.000665405   0.071021769
Se       0.916263355   0.083736645  -0.000003558
Se       0.916499590   0.083500410   0.141627132
Nb       0.749472255   0.250527745   0.071345057
Se       0.918194636   0.337007415   0.001708328
Se       0.914752876   0.331055192   0.143116075
Nb       0.749472255   0.498944509   0.071345057
Se       0.918194636   0.581187220   0.001708328
Se       0.914752876   0.583697684   0.143116075
Nb       0.748621485   0.749286890   0.071021769
Se       0.916263355   0.832526711  -0.000003558
Se       0.916499590   0.832999178   0.141627132
Nb       0.503925889   0.751962944   0.074656176
Se       0.664719717   0.832359858   0.000399944
Se       0.670650658   0.835325328   0.143551560
Nb       0.248037056   0.751962944   0.074656176
Se       0.415595301   0.831190602   0.004447055
Se       0.423632793   0.847265585   0.146749079
Nb       0.000665405   0.749286890   0.071021769
Se       0.167640142   0.832359858   0.000399944
Se       0.164674672   0.835325328   0.143551560
Nb       0.501055491   0.250527745   0.071345057
Se       0.666666667   0.333333333  -0.000253159
Se       0.666666667   0.333333333   0.142605760
Nb       0.498663171   0.501336829   0.074324213
Se       0.662992585   0.581187220   0.001708328
Se       0.668944808   0.583697684   0.143116075
Nb       0.248037056   0.496074111   0.074656176
Se       0.415595301   0.584404699   0.004447055
Se       0.423632793   0.576367207   0.146749079
Nb       0.250713110   0.251378515   0.071021769
Se       0.418812780   0.337007415   0.001708328
Se       0.416302316   0.331055192   0.143116075
Nb       0.000665405   0.251378515   0.071021769
Se       0.167640142   0.335280283   0.000399944
Se       0.164674672   0.329349342   0.143551560
Nb       0.002673658   0.501336829   0.074324213
Se       0.168809398   0.584404699   0.004447055
Se       0.152734415   0.576367207   0.146749079



     Writing output data file adatom.save/
     NEW-OLD atomic charge density approx. for the potential

     negative rho (up, down):  1.288E-02 3.982E-03

     total cpu time spent up to now is    13668.3 secs

     Self-consistent Calculation

     iteration #  1     ecut=    75.00 Ry     beta= 0.70
     Davidson diagonalization with overlap
     ethr =  1.00E-06,  avg # of iterations = 14.1

     negative rho (up, down):  8.456E-03 9.559E-02

     total cpu time spent up to now is    13879.1 secs

     total energy              =  -11738.84908476 Ry
     Harris-Foulkes estimate   =  -11739.01057384 Ry
     estimated scf accuracy    <       0.15738963 Ry

     total magnetization       =     4.54 Bohr mag/cell
     absolute magnetization    =     5.35 Bohr mag/cell

     iteration #  2     ecut=    75.00 Ry     beta= 0.70
     Davidson diagonalization with overlap
     ethr =  3.78E-05,  avg # of iterations =  2.9

     negative rho (up, down):  8.875E-03 2.535E-01

     total cpu time spent up to now is    13954.5 secs

     total energy              =  -11738.85103681 Ry
     Harris-Foulkes estimate   =  -11738.88071699 Ry
     estimated scf accuracy    <       0.34728003 Ry

     total magnetization       =     4.47 Bohr mag/cell
     absolute magnetization    =     5.42 Bohr mag/cell

     iteration #  3     ecut=    75.00 Ry     beta= 0.70
     Davidson diagonalization with overlap
     ethr =  3.78E-05,  avg # of iterations =  2.5

     negative rho (up, down):  8.222E-03 4.762E-02

     total cpu time spent up to now is    14026.3 secs

     total energy              =  -11738.87579694 Ry
     Harris-Foulkes estimate   =  -11738.87087988 Ry
     estimated scf accuracy    <       0.02621754 Ry

     total magnetization       =     4.33 Bohr mag/cell
     absolute magnetization    =     5.29 Bohr mag/cell

     iteration #  4     ecut=    75.00 Ry     beta= 0.70
     Davidson diagonalization with overlap
     ethr =  6.30E-06,  avg # of iterations =  2.1

     negative rho (up, down):  8.292E-03 6.477E-02

     total cpu time spent up to now is    14095.7 secs

     total energy              =  -11738.87718657 Ry
     Harris-Foulkes estimate   =  -11738.87728404 Ry
     estimated scf accuracy    <       0.00273193 Ry

     total magnetization       =     4.27 Bohr mag/cell
     absolute magnetization    =     5.37 Bohr mag/cell

     iteration #  5     ecut=    75.00 Ry     beta= 0.70
     Davidson diagonalization with overlap
     ethr =  6.57E-07,  avg # of iterations =  3.0

     negative rho (up, down):  7.850E-03 2.948E-02

     total cpu time spent up to now is    14177.0 secs

     total energy              =  -11738.87741801 Ry
     Harris-Foulkes estimate   =  -11738.87743319 Ry
     estimated scf accuracy    <       0.00162226 Ry

     total magnetization       =     4.19 Bohr mag/cell
     absolute magnetization    =     5.38 Bohr mag/cell

     iteration #  6     ecut=    75.00 Ry     beta= 0.70
     Davidson diagonalization with overlap
     ethr =  3.90E-07,  avg # of iterations =  1.4

     negative rho (up, down):  7.180E-03 2.811E-02

     total cpu time spent up to now is    14244.0 secs

     total energy              =  -11738.87754617 Ry
     Harris-Foulkes estimate   =  -11738.87751277 Ry
     estimated scf accuracy    <       0.00015524 Ry

     total magnetization       =     4.14 Bohr mag/cell
     absolute magnetization    =     5.45 Bohr mag/cell

     iteration #  7     ecut=    75.00 Ry     beta= 0.70
     Davidson diagonalization with overlap
     ethr =  3.73E-08,  avg # of iterations =  5.1

     negative rho (up, down):  6.449E-03 2.191E-02

     total cpu time spent up to now is    14337.9 secs

     total energy              =  -11738.87765068 Ry
     Harris-Foulkes estimate   =  -11738.87761794 Ry
     estimated scf accuracy    <       0.00005933 Ry

     total magnetization       =     4.10 Bohr mag/cell
     absolute magnetization    =     5.55 Bohr mag/cell

     iteration #  8     ecut=    75.00 Ry     beta= 0.70
     Davidson diagonalization with overlap
     ethr =  1.43E-08,  avg # of iterations =  2.4
