
     Program PWSCF v.6.8 starts on 21Mar2023 at 18:10:18 

     This program is part of the open-source Quantum ESPRESSO suite
     for quantum simulation of materials; please cite
         "P. Giannozzi et al., J. Phys.:Condens. Matter 21 395502 (2009);
         "P. Giannozzi et al., J. Phys.:Condens. Matter 29 465901 (2017);
         "P. Giannozzi et al., J. Chem. Phys. 152 154105 (2020);
          URL http://www.quantum-espresso.org", 
     in publications or presentations arising from this work. More details at
     http://www.quantum-espresso.org/quote

     Parallel version (MPI & OpenMP), running on      72 processor cores
     Number of MPI processes:                72
     Threads/MPI process:                     1

     MPI processes distributed on     1 nodes
     R & G space division:  proc/nbgrp/npool/nimage =      72
     240031 MiB available memory on the printing compute node when the environment starts
 
     Reading input from ErSeI_vc-relax_monolayer_155.in

     Current dimensions of program PWSCF are:
     Max number of different atomic species (ntypx) = 10
     Max number of k-points (npk) =  40000
     Max angular momentum in pseudopotentials (lmaxx) =  4
     file Er.pbe-spdfn-rrkjus_psl.1.0.0.UPF: wavefunction(s)  4D 5D 4F renormalized
     file I.pbe-n-rrkjus_psl.1.0.0.UPF: wavefunction(s)  5S renormalized

     Subspace diagonalization in iterative solution of the eigenvalue problem:
     one sub-group per band group will be used
     scalapack distributed-memory algorithm (size of sub-group:  8*  8 procs)

 
     Parallelization info
     --------------------
     sticks:   dense  smooth     PW     G-vecs:    dense   smooth      PW
     Min         142      57     15                58632    14829    2079
     Max         143      58     16                58665    14852    2100
     Sum       10295    4125   1123              4223185  1068341  150285
 
     Using Slab Decomposition
 


     bravais-lattice index     =            8
     lattice parameter (alat)  =       7.9040  a.u.
     unit-cell volume          =    4097.9032 (a.u.)^3
     number of atoms/cell      =            6
     number of atomic types    =            3
     number of electrons       =       110.00
     number of Kohn-Sham states=           66
     kinetic-energy cutoff     =     155.0000  Ry
     charge density cutoff     =    1550.0000  Ry
     scf convergence threshold =      1.0E-06
     mixing beta               =       0.1000
     number of iterations used =            8  plain     mixing
     energy convergence thresh.=      1.0E-04
     force convergence thresh. =      1.0E-03
     press convergence thresh. =      5.0E-01
     Exchange-correlation= PBE
                           (   1   4   3   4   0   0   0)
     nstep                     =          500


     celldm(1)=   7.903968  celldm(2)=   1.335055  celldm(3)=   6.216229
     celldm(4)=   0.000000  celldm(5)=   0.000000  celldm(6)=   0.000000

     crystal axes: (cart. coord. in units of alat)
               a(1) = (   1.000000   0.000000   0.000000 )  
               a(2) = (   0.000000   1.335055   0.000000 )  
               a(3) = (   0.000000   0.000000   6.216229 )  

     reciprocal axes: (cart. coord. in units 2 pi/alat)
               b(1) = (  1.000000  0.000000  0.000000 )  
               b(2) = (  0.000000  0.749033  0.000000 )  
               b(3) = (  0.000000  0.000000  0.160869 )  


     PseudoPot. # 1 for Er read from file:
     /u/jojaibal/QuantumEspresso/pseudopotentials/Er.pbe-spdfn-rrkjus_psl.1.0.0.UPF
     MD5 check sum: 1a03d9b4119853e839b71564a11e6839
     Pseudo is Ultrasoft + core correction, Zval = 32.0
     Generated using 'atomic' code by A. Dal Corso  v.6.8
     Using radial grid of 1267 points,  8 beta functions with: 
                l(1) =   0
                l(2) =   0
                l(3) =   1
                l(4) =   1
                l(5) =   2
                l(6) =   2
                l(7) =   3
                l(8) =   3
     Q(r) pseudized with 0 coefficients 


     PseudoPot. # 2 for Se read from file:
     /u/jojaibal/QuantumEspresso/pseudopotentials/Se.pbe-dn-rrkjus_psl.1.0.0.UPF
     MD5 check sum: 497c2ee764913186385bad8d0f9c7a86
     Pseudo is Ultrasoft + core correction, Zval = 16.0
     Generated using &quot;atomic&quot; code by A. Dal Corso  v.6.3
     Using radial grid of 1211 points,  6 beta functions with: 
                l(1) =   0
                l(2) =   0
                l(3) =   1
                l(4) =   1
                l(5) =   2
                l(6) =   2
     Q(r) pseudized with 0 coefficients 


     PseudoPot. # 3 for I  read from file:
     /u/jojaibal/QuantumEspresso/pseudopotentials/I.pbe-n-rrkjus_psl.1.0.0.UPF
     MD5 check sum: 21b6b539e0050b62c62ace6be4e6e5e0
     Pseudo is Ultrasoft + core correction, Zval =  7.0
     Generated using &quot;atomic&quot; code by A. Dal Corso  v.6.3
     Using radial grid of 1247 points,  6 beta functions with: 
                l(1) =   0
                l(2) =   0
                l(3) =   1
                l(4) =   1
                l(5) =   2
                l(6) =   2
     Q(r) pseudized with 0 coefficients 


     atomic species   valence    mass     pseudopotential
        Er            32.00   167.25900     Er( 1.00)
        Se            16.00    78.96000     Se( 1.00)
        I              7.00   126.90400     I ( 1.00)

     Starting magnetic structure 
     atomic species   magnetization
        Er           0.100
        Se           0.100
        I            0.100

      4 Sym. Ops. (no inversion) found



   Cartesian axes

     site n.     atom                  positions (alat units)
         1           Er  tau(   1) = (   0.5000000   0.6675274   1.0520251  )
         2           Er  tau(   2) = (   0.0000000   0.0000000   0.5145125  )
         3           I   tau(   3) = (   0.5000000   0.0000000   0.0000000  )
         4           I   tau(   4) = (   0.0000000   0.6675274   1.5665376  )
         5           Se  tau(   5) = (   0.0000000   0.6675274   0.5927892  )
         6           Se  tau(   6) = (   0.5000000   0.0000000   0.9737484  )

     number of k points=    20  Marzari-Vanderbilt smearing, width (Ry)=  0.0010
                       cart. coord. in units 2pi/alat
        k(    1) = (   0.0000000   0.0000000   0.0000000), wk =   0.0208333
        k(    2) = (   0.0000000   0.1248388   0.0000000), wk =   0.0416667
        k(    3) = (   0.0000000   0.2496777   0.0000000), wk =   0.0416667
        k(    4) = (   0.0000000  -0.3745165   0.0000000), wk =   0.0208333
        k(    5) = (   0.1250000   0.0000000   0.0000000), wk =   0.0416667
        k(    6) = (   0.1250000   0.1248388   0.0000000), wk =   0.0833333
        k(    7) = (   0.1250000   0.2496777   0.0000000), wk =   0.0833333
        k(    8) = (   0.1250000  -0.3745165   0.0000000), wk =   0.0416667
        k(    9) = (   0.2500000   0.0000000   0.0000000), wk =   0.0416667
        k(   10) = (   0.2500000   0.1248388   0.0000000), wk =   0.0833333
        k(   11) = (   0.2500000   0.2496777   0.0000000), wk =   0.0833333
        k(   12) = (   0.2500000  -0.3745165   0.0000000), wk =   0.0416667
        k(   13) = (   0.3750000   0.0000000   0.0000000), wk =   0.0416667
        k(   14) = (   0.3750000   0.1248388   0.0000000), wk =   0.0833333
        k(   15) = (   0.3750000   0.2496777   0.0000000), wk =   0.0833333
        k(   16) = (   0.3750000  -0.3745165   0.0000000), wk =   0.0416667
        k(   17) = (  -0.5000000   0.0000000   0.0000000), wk =   0.0208333
        k(   18) = (  -0.5000000   0.1248388   0.0000000), wk =   0.0416667
        k(   19) = (  -0.5000000   0.2496777   0.0000000), wk =   0.0416667
        k(   20) = (  -0.5000000  -0.3745165   0.0000000), wk =   0.0208333

     Dense  grid:  4223185 G-vectors     FFT dimensions: ( 100, 135, 625)

     Smooth grid:  1068341 G-vectors     FFT dimensions: (  64,  90, 400)

     Estimated max dynamical RAM per process >     706.71 MB

     Estimated total dynamical RAM >      49.69 GB
     Generating pointlists ...
     new r_m :   0.2772 (alat units)  2.1913 (a.u.) for type    1
     new r_m :   0.2772 (alat units)  2.1913 (a.u.) for type    2
     new r_m :   0.2959 (alat units)  2.3391 (a.u.) for type    3

     Initial potential from superposition of free atoms

     starting charge  109.99072, renormalised to  110.00000

     negative rho (up, down):  1.826E-03 1.494E-03
     Starting wfcs are   70 randomized atomic wfcs

     total cpu time spent up to now is       17.1 secs

     Self-consistent Calculation

     iteration #  1     ecut=   155.00 Ry     beta= 0.10
     Davidson diagonalization with overlap
     ethr =  1.00E-02,  avg # of iterations =  5.0

     negative rho (up, down):  1.553E-03 1.272E-03

     total cpu time spent up to now is       33.5 secs

     total energy              =   -2804.36649868 Ry
     estimated scf accuracy    <      17.57237331 Ry

     total magnetization       =    11.21 Bohr mag/cell
     absolute magnetization    =    11.23 Bohr mag/cell

     iteration #  2     ecut=   155.00 Ry     beta= 0.10
     Davidson diagonalization with overlap
     ethr =  1.00E-02,  avg # of iterations =  2.0

     negative rho (up, down):  1.357E-03 1.108E-03

     total cpu time spent up to now is       47.6 secs

     total energy              =   -2805.49321429 Ry
     estimated scf accuracy    <      20.00026238 Ry

     total magnetization       =     1.90 Bohr mag/cell
     absolute magnetization    =     2.16 Bohr mag/cell

     iteration #  3     ecut=   155.00 Ry     beta= 0.10
     Davidson diagonalization with overlap
     ethr =  1.00E-02,  avg # of iterations =  1.0

     negative rho (up, down):  1.187E-03 9.687E-04

     total cpu time spent up to now is       60.3 secs

     total energy              =   -2806.60804607 Ry
     estimated scf accuracy    <       0.66747766 Ry

     total magnetization       =     6.00 Bohr mag/cell
     absolute magnetization    =     6.15 Bohr mag/cell

     iteration #  4     ecut=   155.00 Ry     beta= 0.10
     Davidson diagonalization with overlap
     ethr =  6.07E-04,  avg # of iterations =  1.6

     negative rho (up, down):  1.031E-03 8.439E-04

     total cpu time spent up to now is       74.0 secs

     total energy              =   -2806.58866988 Ry
     estimated scf accuracy    <      17.07741074 Ry

     total magnetization       =     6.00 Bohr mag/cell
     absolute magnetization    =     6.26 Bohr mag/cell

     iteration #  5     ecut=   155.00 Ry     beta= 0.10
     Davidson diagonalization with overlap
     ethr =  6.07E-04,  avg # of iterations =  1.0

     negative rho (up, down):  8.984E-04 7.364E-04

     total cpu time spent up to now is       87.1 secs

     total energy              =   -2806.59793467 Ry
     estimated scf accuracy    <       8.30915633 Ry

     total magnetization       =     6.00 Bohr mag/cell
     absolute magnetization    =     6.15 Bohr mag/cell

     iteration #  6     ecut=   155.00 Ry     beta= 0.10
     Davidson diagonalization with overlap
     ethr =  6.07E-04,  avg # of iterations =  1.0

     negative rho (up, down):  7.855E-04 6.448E-04

     total cpu time spent up to now is      100.1 secs

     total energy              =   -2806.60245826 Ry
     estimated scf accuracy    <       2.50276414 Ry

     total magnetization       =     6.00 Bohr mag/cell
     absolute magnetization    =     6.07 Bohr mag/cell

     iteration #  7     ecut=   155.00 Ry     beta= 0.10
     Davidson diagonalization with overlap
     ethr =  6.07E-04,  avg # of iterations =  1.0

     negative rho (up, down):  6.876E-04 5.647E-04

     total cpu time spent up to now is      112.7 secs

     total energy              =   -2806.62413568 Ry
     estimated scf accuracy    <       1.42357039 Ry

     total magnetization       =     6.00 Bohr mag/cell
     absolute magnetization    =     6.03 Bohr mag/cell

     iteration #  8     ecut=   155.00 Ry     beta= 0.10
     Davidson diagonalization with overlap
     ethr =  6.07E-04,  avg # of iterations =  1.0

     negative rho (up, down):  5.950E-04 4.903E-04

     total cpu time spent up to now is      125.5 secs

     total energy              =   -2806.63618376 Ry
     estimated scf accuracy    <       0.33829430 Ry

     total magnetization       =     5.95 Bohr mag/cell
     absolute magnetization    =     5.96 Bohr mag/cell

     iteration #  9     ecut=   155.00 Ry     beta= 0.10
     Davidson diagonalization with overlap
     ethr =  3.08E-04,  avg # of iterations =  1.2

     negative rho (up, down):  5.186E-04 4.289E-04

     total cpu time spent up to now is      138.4 secs

     total energy              =   -2806.65997073 Ry
     estimated scf accuracy    <       0.15335469 Ry

     total magnetization       =     6.00 Bohr mag/cell
     absolute magnetization    =     6.02 Bohr mag/cell

     iteration # 10     ecut=   155.00 Ry     beta= 0.10
     Davidson diagonalization with overlap
     ethr =  1.39E-04,  avg # of iterations =  1.4

     negative rho (up, down):  4.496E-04 3.741E-04

     total cpu time spent up to now is      151.5 secs

     total energy              =   -2806.68319296 Ry
     estimated scf accuracy    <       0.08524775 Ry

     total magnetization       =     6.00 Bohr mag/cell
     absolute magnetization    =     6.03 Bohr mag/cell

     iteration # 11     ecut=   155.00 Ry     beta= 0.10
     Davidson diagonalization with overlap
     ethr =  7.75E-05,  avg # of iterations =  3.8

     negative rho (up, down):  3.853E-04 3.236E-04

     total cpu time spent up to now is      165.8 secs

     total energy              =   -2806.69785134 Ry
     estimated scf accuracy    <       0.12167485 Ry

     total magnetization       =     6.00 Bohr mag/cell
     absolute magnetization    =     6.04 Bohr mag/cell

     iteration # 12     ecut=   155.00 Ry     beta= 0.10
     Davidson diagonalization with overlap
     ethr =  7.75E-05,  avg # of iterations =  3.2

     negative rho (up, down):  3.253E-04 2.765E-04

     total cpu time spent up to now is      179.8 secs

     total energy              =   -2806.70873541 Ry
     estimated scf accuracy    <       0.09608230 Ry

     total magnetization       =     5.97 Bohr mag/cell
     absolute magnetization    =     6.01 Bohr mag/cell

     iteration # 13     ecut=   155.00 Ry     beta= 0.10
     Davidson diagonalization with overlap
     ethr =  7.75E-05,  avg # of iterations =  1.1

     negative rho (up, down):  2.716E-04 2.347E-04

     total cpu time spent up to now is      192.5 secs

     total energy              =   -2806.71237094 Ry
     estimated scf accuracy    <       0.09186310 Ry

     total magnetization       =     5.92 Bohr mag/cell
     absolute magnetization    =     5.97 Bohr mag/cell

     iteration # 14     ecut=   155.00 Ry     beta= 0.10
     Davidson diagonalization with overlap
     ethr =  7.75E-05,  avg # of iterations =  1.2

     negative rho (up, down):  2.237E-04 1.964E-04

     total cpu time spent up to now is      205.4 secs

     total energy              =   -2806.71448549 Ry
     estimated scf accuracy    <       0.03928240 Ry

     total magnetization       =     6.00 Bohr mag/cell
     absolute magnetization    =     6.06 Bohr mag/cell

     iteration # 15     ecut=   155.00 Ry     beta= 0.10
     Davidson diagonalization with overlap
     ethr =  3.57E-05,  avg # of iterations =  2.7

     negative rho (up, down):  1.794E-04 1.606E-04

     total cpu time spent up to now is      219.2 secs

     total energy              =   -2806.71342373 Ry
     estimated scf accuracy    <       0.04040820 Ry

     total magnetization       =     6.00 Bohr mag/cell
     absolute magnetization    =     6.05 Bohr mag/cell

     iteration # 16     ecut=   155.00 Ry     beta= 0.10
     Davidson diagonalization with overlap
     ethr =  3.57E-05,  avg # of iterations =  1.3

     negative rho (up, down):  1.454E-04 1.326E-04

     total cpu time spent up to now is      232.0 secs

     total energy              =   -2806.71207992 Ry
     estimated scf accuracy    <       0.03760396 Ry

     total magnetization       =     6.00 Bohr mag/cell
     absolute magnetization    =     6.05 Bohr mag/cell

     iteration # 17     ecut=   155.00 Ry     beta= 0.10
     Davidson diagonalization with overlap
     ethr =  3.42E-05,  avg # of iterations =  1.5

     negative rho (up, down):  1.132E-04 1.066E-04

     total cpu time spent up to now is      245.1 secs

     total energy              =   -2806.71209877 Ry
     estimated scf accuracy    <       0.06154484 Ry

     total magnetization       =     6.00 Bohr mag/cell
     absolute magnetization    =     6.05 Bohr mag/cell

     iteration # 18     ecut=   155.00 Ry     beta= 0.10
     Davidson diagonalization with overlap
     ethr =  3.42E-05,  avg # of iterations =  1.4

     negative rho (up, down):  8.634E-05 8.472E-05

     total cpu time spent up to now is      258.0 secs

     total energy              =   -2806.71389692 Ry
     estimated scf accuracy    <       0.04568567 Ry

     total magnetization       =     6.00 Bohr mag/cell
     absolute magnetization    =     6.05 Bohr mag/cell

     iteration # 19     ecut=   155.00 Ry     beta= 0.10
     Davidson diagonalization with overlap
     ethr =  3.42E-05,  avg # of iterations =  1.0

     negative rho (up, down):  6.389E-05 6.785E-05

     total cpu time spent up to now is      270.7 secs

     total energy              =   -2806.71315195 Ry
     estimated scf accuracy    <       0.03496100 Ry

     total magnetization       =     6.00 Bohr mag/cell
     absolute magnetization    =     6.06 Bohr mag/cell

     iteration # 20     ecut=   155.00 Ry     beta= 0.10
     Davidson diagonalization with overlap
     ethr =  3.18E-05,  avg # of iterations =  1.7

     negative rho (up, down):  4.573E-05 5.094E-05

     total cpu time spent up to now is      284.0 secs

     total energy              =   -2806.71583483 Ry
     estimated scf accuracy    <       0.01217395 Ry

     total magnetization       =     6.00 Bohr mag/cell
     absolute magnetization    =     6.06 Bohr mag/cell

     iteration # 21     ecut=   155.00 Ry     beta= 0.10
     Davidson diagonalization with overlap
     ethr =  1.11E-05,  avg # of iterations =  5.1

     negative rho (up, down):  3.640E-05 3.928E-05

     total cpu time spent up to now is      299.1 secs

     total energy              =   -2806.71570925 Ry
     estimated scf accuracy    <       0.01691038 Ry

     total magnetization       =     5.96 Bohr mag/cell
     absolute magnetization    =     6.01 Bohr mag/cell

     iteration # 22     ecut=   155.00 Ry     beta= 0.10
     Davidson diagonalization with overlap
     ethr =  1.11E-05,  avg # of iterations =  1.0

     negative rho (up, down):  3.461E-05 3.220E-05

     total cpu time spent up to now is      311.8 secs

     total energy              =   -2806.71617330 Ry
     estimated scf accuracy    <       0.00698444 Ry

     total magnetization       =     5.99 Bohr mag/cell
     absolute magnetization    =     6.05 Bohr mag/cell

     iteration # 23     ecut=   155.00 Ry     beta= 0.10
     Davidson diagonalization with overlap
     ethr =  6.35E-06,  avg # of iterations =  2.1

     negative rho (up, down):  3.955E-05 3.013E-05

     total cpu time spent up to now is      325.1 secs

     total energy              =   -2806.71624544 Ry
     estimated scf accuracy    <       0.00181749 Ry

     total magnetization       =     6.00 Bohr mag/cell
     absolute magnetization    =     6.06 Bohr mag/cell

     iteration # 24     ecut=   155.00 Ry     beta= 0.10
     Davidson diagonalization with overlap
     ethr =  1.65E-06,  avg # of iterations =  5.0

     negative rho (up, down):  4.876E-05 3.302E-05

     total cpu time spent up to now is      340.1 secs

     total energy              =   -2806.71629900 Ry
     estimated scf accuracy    <       0.00415700 Ry

     total magnetization       =     5.96 Bohr mag/cell
     absolute magnetization    =     6.02 Bohr mag/cell

     iteration # 25     ecut=   155.00 Ry     beta= 0.10
     Davidson diagonalization with overlap
     ethr =  1.65E-06,  avg # of iterations =  1.1

     negative rho (up, down):  5.874E-05 3.811E-05

     total cpu time spent up to now is      352.9 secs

     total energy              =   -2806.71646140 Ry
     estimated scf accuracy    <       0.00107437 Ry

     total magnetization       =     6.00 Bohr mag/cell
     absolute magnetization    =     6.05 Bohr mag/cell

     iteration # 26     ecut=   155.00 Ry     beta= 0.10
     Davidson diagonalization with overlap
     ethr =  9.77E-07,  avg # of iterations =  1.8

     negative rho (up, down):  6.850E-05 4.425E-05

     total cpu time spent up to now is      366.5 secs

     total energy              =   -2806.71654732 Ry
     estimated scf accuracy    <       0.00320978 Ry

     total magnetization       =     5.99 Bohr mag/cell
     absolute magnetization    =     6.04 Bohr mag/cell

     iteration # 27     ecut=   155.00 Ry     beta= 0.10
     Davidson diagonalization with overlap
     ethr =  9.77E-07,  avg # of iterations =  1.0

     negative rho (up, down):  7.824E-05 5.102E-05

     total cpu time spent up to now is      379.2 secs

     total energy              =   -2806.71663788 Ry
     estimated scf accuracy    <       0.00021754 Ry

     total magnetization       =     5.98 Bohr mag/cell
     absolute magnetization    =     6.03 Bohr mag/cell

     iteration # 28     ecut=   155.00 Ry     beta= 0.10
     Davidson diagonalization with overlap
     ethr =  1.98E-07,  avg # of iterations =  1.7

     negative rho (up, down):  8.702E-05 5.735E-05

     total cpu time spent up to now is      392.7 secs

     total energy              =   -2806.71667729 Ry
     estimated scf accuracy    <       0.00069863 Ry

     total magnetization       =     5.97 Bohr mag/cell
     absolute magnetization    =     6.02 Bohr mag/cell

     iteration # 29     ecut=   155.00 Ry     beta= 0.10
     Davidson diagonalization with overlap
     ethr =  1.98E-07,  avg # of iterations =  1.1

     negative rho (up, down):  9.501E-05 6.326E-05

     total cpu time spent up to now is      405.4 secs

     total energy              =   -2806.71670018 Ry
     estimated scf accuracy    <       0.00167650 Ry

     total magnetization       =     5.98 Bohr mag/cell
     absolute magnetization    =     6.03 Bohr mag/cell

     iteration # 30     ecut=   155.00 Ry     beta= 0.10
     Davidson diagonalization with overlap
     ethr =  1.98E-07,  avg # of iterations =  1.5

     negative rho (up, down):  1.025E-04 6.886E-05

     total cpu time spent up to now is      418.8 secs

     total energy              =   -2806.71678669 Ry
     estimated scf accuracy    <       0.00319235 Ry

     total magnetization       =     5.97 Bohr mag/cell
     absolute magnetization    =     6.02 Bohr mag/cell

     iteration # 31     ecut=   155.00 Ry     beta= 0.10
     Davidson diagonalization with overlap
     ethr =  1.98E-07,  avg # of iterations =  1.0

     negative rho (up, down):  1.092E-04 7.399E-05

     total cpu time spent up to now is      431.4 secs

     total energy              =   -2806.71677465 Ry
     estimated scf accuracy    <       0.00232118 Ry

     total magnetization       =     5.97 Bohr mag/cell
     absolute magnetization    =     6.02 Bohr mag/cell

     iteration # 32     ecut=   155.00 Ry     beta= 0.10
     Davidson diagonalization with overlap
     ethr =  1.98E-07,  avg # of iterations =  1.0

     negative rho (up, down):  1.154E-04 7.875E-05

     total cpu time spent up to now is      444.0 secs

     total energy              =   -2806.71681907 Ry
     estimated scf accuracy    <       0.00053755 Ry

     total magnetization       =     5.97 Bohr mag/cell
     absolute magnetization    =     6.03 Bohr mag/cell

     iteration # 33     ecut=   155.00 Ry     beta= 0.10
     Davidson diagonalization with overlap
     ethr =  1.98E-07,  avg # of iterations =  1.0

     negative rho (up, down):  1.211E-04 8.311E-05

     total cpu time spent up to now is      456.7 secs

     total energy              =   -2806.71682195 Ry
     estimated scf accuracy    <       0.00025203 Ry

     total magnetization       =     5.98 Bohr mag/cell
     absolute magnetization    =     6.03 Bohr mag/cell

     iteration # 34     ecut=   155.00 Ry     beta= 0.10
     Davidson diagonalization with overlap
     ethr =  1.98E-07,  avg # of iterations =  1.0

     negative rho (up, down):  1.262E-04 8.701E-05

     total cpu time spent up to now is      469.4 secs

     total energy              =   -2806.71682919 Ry
     estimated scf accuracy    <       0.00001540 Ry

     total magnetization       =     5.98 Bohr mag/cell
     absolute magnetization    =     6.04 Bohr mag/cell

     iteration # 35     ecut=   155.00 Ry     beta= 0.10
     Davidson diagonalization with overlap
     ethr =  1.40E-08,  avg # of iterations =  1.0

     negative rho (up, down):  1.308E-04 9.058E-05

     total cpu time spent up to now is      482.1 secs

     total energy              =   -2806.71683703 Ry
     estimated scf accuracy    <       0.00002627 Ry

     total magnetization       =     5.99 Bohr mag/cell
     absolute magnetization    =     6.04 Bohr mag/cell

     iteration # 36     ecut=   155.00 Ry     beta= 0.10
     Davidson diagonalization with overlap
     ethr =  1.40E-08,  avg # of iterations =  1.0

     negative rho (up, down):  1.351E-04 9.390E-05

     total cpu time spent up to now is      494.7 secs

     total energy              =   -2806.71684022 Ry
     estimated scf accuracy    <       0.00001698 Ry

     total magnetization       =     5.98 Bohr mag/cell
     absolute magnetization    =     6.04 Bohr mag/cell

     iteration # 37     ecut=   155.00 Ry     beta= 0.10
     Davidson diagonalization with overlap
     ethr =  1.40E-08,  avg # of iterations =  1.6

     negative rho (up, down):  1.389E-04 9.690E-05

     total cpu time spent up to now is      508.3 secs

     total energy              =   -2806.71684261 Ry
     estimated scf accuracy    <       0.00037149 Ry

     total magnetization       =     5.99 Bohr mag/cell
     absolute magnetization    =     6.04 Bohr mag/cell

     iteration # 38     ecut=   155.00 Ry     beta= 0.10
     Davidson diagonalization with overlap
     ethr =  1.40E-08,  avg # of iterations =  1.0

     negative rho (up, down):  1.424E-04 9.961E-05

     total cpu time spent up to now is      520.9 secs

     total energy              =   -2806.71684758 Ry
     estimated scf accuracy    <       0.00002136 Ry

     total magnetization       =     5.99 Bohr mag/cell
     absolute magnetization    =     6.04 Bohr mag/cell

     iteration # 39     ecut=   155.00 Ry     beta= 0.10
     Davidson diagonalization with overlap
     ethr =  1.40E-08,  avg # of iterations =  1.0

     negative rho (up, down):  1.742E-04 1.245E-04
 
     Magnetic moment per site  (integrated on atomic sphere of radius R)
     atom   1 (R=0.277)  charge= 29.4139  magn=  2.7908
     atom   2 (R=0.277)  charge= 29.4148  magn=  2.7899
     atom   3 (R=0.296)  charge=  4.8880  magn=  0.0525
     atom   4 (R=0.296)  charge=  4.8881  magn=  0.0525
     atom   5 (R=0.277)  charge= 14.6225  magn=  0.0822
     atom   6 (R=0.277)  charge= 14.6224  magn=  0.0822

     total cpu time spent up to now is      533.5 secs

     End of self-consistent calculation

 ------ SPIN UP ------------


          k = 0.0000 0.0000 0.0000 (133481 PWs)   bands (ev):

  -168.9223-168.9218-168.5709-168.5708-168.5502-168.5495-168.3733-168.3728
  -168.3355-168.3354 -51.6227 -51.6201 -48.1305 -48.1295 -48.1224 -48.1216
   -48.1164 -48.1154 -48.1134 -48.1126 -48.1089 -48.1081 -25.4806 -25.4670
   -25.4323 -25.4263 -25.4213 -25.4046 -14.1134 -13.5437 -13.4121 -13.3851
    -5.6452  -5.6259  -5.6238  -5.6216  -5.6176  -5.5755  -5.2230  -5.1887
    -5.1002  -5.0413  -5.0171  -4.9897  -4.9690  -4.9526  -4.8245  -4.5890
    -4.3881  -3.6117  -3.4161  -3.3770  -3.2037  -3.1892  -2.8202  -2.5299
    -2.0437  -1.9710   0.5375   1.0699   1.4702   2.0481   2.2555   2.4268
     2.6022   2.7111

          k = 0.0000 0.1248 0.0000 (133614 PWs)   bands (ev):

  -168.9223-168.9218-168.5709-168.5708-168.5502-168.5495-168.3733-168.3728
  -168.3355-168.3354 -51.6224 -51.6202 -48.1306 -48.1297 -48.1224 -48.1216
   -48.1164 -48.1155 -48.1134 -48.1126 -48.1089 -48.1081 -25.4866 -25.4738
   -25.4304 -25.4217 -25.4185 -25.4064 -14.0355 -13.5482 -13.3847 -13.3782
    -5.6442  -5.6284  -5.6275  -5.6212  -5.6192  -5.5652  -5.2203  -5.2070
    -5.1905  -5.0442  -5.0400  -5.0108  -4.9880  -4.9693  -4.9535  -4.4860
    -4.4100  -3.6161  -3.5439  -3.4017  -3.3449  -3.1001  -2.8028  -2.6380
    -2.4080  -2.1319   0.6284   1.3896   1.4295   1.8201   2.4851   2.7008
     2.7534   3.4482

          k = 0.0000 0.2497 0.0000 (133594 PWs)   bands (ev):

  -168.9223-168.9218-168.5709-168.5709-168.5502-168.5495-168.3733-168.3728
  -168.3355-168.3354 -51.6218 -51.6205 -48.1308 -48.1300 -48.1224 -48.1216
   -48.1163 -48.1155 -48.1134 -48.1126 -48.1089 -48.1081 -25.4954 -25.4872
   -25.4252 -25.4150 -25.4140 -25.4113 -13.8497 -13.5782 -13.3587 -13.3390
    -5.6429  -5.6412  -5.6316  -5.6287  -5.6188  -5.5626  -5.4716  -5.2130
    -5.1958  -5.0762  -5.0403  -4.9970  -4.9849  -4.9719  -4.9555  -4.7783
    -4.2924  -3.7802  -3.6089  -3.5927  -3.5320  -3.4720  -2.7445  -2.7104
    -2.4161  -2.3632   0.7580   1.1799   2.0900   2.1876   2.6411   2.8198
     3.2569   3.4285

          k = 0.0000-0.3745 0.0000 (133686 PWs)   bands (ev):

  -168.9223-168.9218-168.5709-168.5709-168.5502-168.5495-168.3733-168.3728
  -168.3355-168.3354 -51.6211 -51.6210 -48.1309 -48.1301 -48.1224 -48.1216
   -48.1163 -48.1155 -48.1134 -48.1126 -48.1089 -48.1081 -25.4963 -25.4963
   -25.4183 -25.4180 -25.4122 -25.4122 -13.6717 -13.6715 -13.3345 -13.3343
    -5.6577  -5.6576  -5.6368  -5.6367  -5.6128  -5.6128  -5.3087  -5.3087
    -5.2040  -5.2038  -5.0050  -5.0047  -4.9867  -4.9865  -4.9514  -4.9512
    -4.1658  -4.1657  -3.6197  -3.6197  -3.5577  -3.5575  -2.6262  -2.6260
    -2.5096  -2.5095   0.9344   0.9344   2.6847   2.6847   2.7269   2.7271
     3.3764   3.3765

          k = 0.1250 0.0000 0.0000 (133541 PWs)   bands (ev):

  -168.9223-168.9218-168.5709-168.5708-168.5502-168.5495-168.3733-168.3728
  -168.3355-168.3354 -51.6224 -51.6200 -48.1305 -48.1295 -48.1224 -48.1216
   -48.1164 -48.1155 -48.1134 -48.1126 -48.1089 -48.1081 -25.4776 -25.4645
   -25.4461 -25.4228 -25.4218 -25.4156 -14.0494 -13.5133 -13.4146 -13.3856
    -5.6493  -5.6325  -5.6180  -5.6172  -5.6125  -5.5745  -5.2261  -5.1869
    -5.0853  -5.0412  -5.0224  -4.9927  -4.9675  -4.9517  -4.7251  -4.5255
    -4.3744  -3.7804  -3.5090  -3.3588  -3.2664  -3.1882  -3.1518  -2.4114
    -2.3469  -2.1828   0.9160   0.9553   1.8211   1.8315   2.4152   2.5060
     2.7067   2.8792

          k = 0.1250 0.1248 0.0000 (133548 PWs)   bands (ev):

  -168.9223-168.9218-168.5709-168.5708-168.5502-168.5495-168.3733-168.3728
  -168.3355-168.3354 -51.6221 -51.6201 -48.1306 -48.1297 -48.1224 -48.1216
   -48.1164 -48.1155 -48.1134 -48.1126 -48.1089 -48.1081 -25.4837 -25.4717
   -25.4441 -25.4219 -25.4175 -25.4148 -13.9721 -13.5137 -13.3886 -13.3795
    -5.6505  -5.6359  -5.6222  -5.6153  -5.6135  -5.5643  -5.2234  -5.1952
    -5.1293  -5.0427  -5.0368  -4.9919  -4.9875  -4.9674  -4.9529  -4.4428
    -4.3823  -3.7933  -3.6642  -3.3662  -3.2325  -3.2161  -3.1384  -2.8321
    -2.3540  -2.3366   1.0234   1.1988   1.6567   1.7638   2.5685   2.7125
     3.0770   3.0965

          k = 0.1250 0.2497 0.0000 (133640 PWs)   bands (ev):

  -168.9223-168.9218-168.5709-168.5709-168.5502-168.5495-168.3733-168.3728
  -168.3355-168.3354 -51.6216 -51.6203 -48.1308 -48.1300 -48.1224 -48.1216
   -48.1163 -48.1155 -48.1134 -48.1126 -48.1089 -48.1081 -25.4928 -25.4853
   -25.4387 -25.4251 -25.4112 -25.4110 -13.7892 -13.5355 -13.3619 -13.3432
    -5.6585  -5.6500  -5.6263  -5.6167  -5.6122  -5.5507  -5.4165  -5.2180
    -5.1886  -5.0650  -5.0389  -4.9933  -4.9921  -4.9679  -4.9552  -4.7180
    -4.3086  -3.8723  -3.8306  -3.7817  -3.3560  -3.3245  -3.1121  -2.8244
    -2.6366  -2.3687   1.1038   1.5566   1.9468   2.0320   2.7246   2.7270
     3.5226   3.6250

          k = 0.1250-0.3745 0.0000 (133646 PWs)   bands (ev):

  -168.9223-168.9218-168.5709-168.5709-168.5502-168.5495-168.3733-168.3728
  -168.3354-168.3354 -51.6210 -51.6208 -48.1309 -48.1301 -48.1224 -48.1216
   -48.1163 -48.1155 -48.1134 -48.1126 -48.1089 -48.1081 -25.4942 -25.4942
   -25.4317 -25.4315 -25.4089 -25.4089 -13.6185 -13.6182 -13.3391 -13.3388
    -5.6703  -5.6703  -5.6229  -5.6229  -5.6019  -5.6018  -5.2888  -5.2888
    -5.1870  -5.1869  -5.0081  -5.0080  -4.9780  -4.9780  -4.9484  -4.9483
    -4.2025  -4.2025  -3.8522  -3.8521  -3.3561  -3.3561  -2.9553  -2.9551
    -2.5570  -2.5570   1.2966   1.2966   2.5209   2.5211   2.7137   2.7137
     3.5952   3.5953

          k = 0.2500 0.0000 0.0000 (133491 PWs)   bands (ev):

  -168.9223-168.9218-168.5709-168.5708-168.5502-168.5495-168.3733-168.3728
  -168.3354-168.3354 -51.6217 -51.6198 -48.1305 -48.1296 -48.1224 -48.1216
   -48.1164 -48.1155 -48.1133 -48.1125 -48.1088 -48.1080 -25.4731 -25.4693
   -25.4679 -25.4322 -25.4274 -25.4173 -13.8846 -13.4775 -13.3914 -13.3835
    -5.6570  -5.6463  -5.6075  -5.6039  -5.6001  -5.5743  -5.2318  -5.1794
    -5.0738  -5.0450  -5.0282  -5.0001  -4.9634  -4.9505  -4.5172  -4.3757
    -4.3371  -4.0700  -3.9057  -3.8678  -3.3480  -3.2122  -3.0206  -2.7292
    -2.5582  -2.4157   0.7245   1.3364   1.6999   2.3899   2.4719   2.6469
     2.6639   2.9802

          k = 0.2500 0.1248 0.0000 (133477 PWs)   bands (ev):

  -168.9223-168.9218-168.5709-168.5708-168.5502-168.5495-168.3733-168.3728
  -168.3354-168.3354 -51.6215 -51.6199 -48.1306 -48.1297 -48.1224 -48.1216
   -48.1164 -48.1155 -48.1133 -48.1125 -48.1088 -48.1080 -25.4827 -25.4755
   -25.4632 -25.4340 -25.4227 -25.4142 -13.8097 -13.4548 -13.3804 -13.3796
    -5.6609  -5.6514  -5.6107  -5.6015  -5.6006  -5.5647  -5.2299  -5.1880
    -5.0785  -5.0444  -5.0359  -5.0006  -4.9631  -4.9524  -4.8245  -4.4130
    -4.4117  -3.9404  -3.8889  -3.8162  -3.6001  -3.2092  -3.1345  -3.0721
    -2.5238  -2.3779   0.8963   1.2222   1.7774   2.3341   2.5961   2.6860
     3.1504   3.5080

          k = 0.2500 0.2497 0.0000 (133591 PWs)   bands (ev):

  -168.9223-168.9218-168.5709-168.5709-168.5502-168.5495-168.3733-168.3728
  -168.3354-168.3354 -51.6210 -51.6200 -48.1308 -48.1300 -48.1224 -48.1216
   -48.1163 -48.1155 -48.1133 -48.1125 -48.1089 -48.1080 -25.4936 -25.4888
   -25.4555 -25.4393 -25.4152 -25.4102 -13.6350 -13.4398 -13.3687 -13.3488
    -5.6754  -5.6710  -5.6116  -5.6024  -5.5970  -5.5421  -5.3429  -5.2311
    -5.1580  -5.0549  -5.0392  -5.0037  -4.9751  -4.9624  -4.9558  -4.6977
    -4.3895  -4.0064  -3.9464  -3.9228  -3.7223  -3.6025  -3.0816  -3.0633
    -2.6982  -2.5312   1.4893   1.6607   2.0798   2.1501   2.7007   2.7378
     3.5235   3.5969

          k = 0.2500-0.3745 0.0000 (133622 PWs)   bands (ev):

  -168.9223-168.9218-168.5709-168.5709-168.5502-168.5495-168.3733-168.3728
  -168.3354-168.3354 -51.6205 -51.6204 -48.1310 -48.1302 -48.1224 -48.1216
   -48.1163 -48.1155 -48.1133 -48.1125 -48.1089 -48.1080 -25.4965 -25.4964
   -25.4471 -25.4470 -25.4104 -25.4104 -13.4862 -13.4860 -13.3502 -13.3499
    -5.6918  -5.6918  -5.6062  -5.6062  -5.5793  -5.5793  -5.3094  -5.3094
    -5.1428  -5.1428  -5.0160  -5.0160  -4.9657  -4.9656  -4.9576  -4.9575
    -4.2652  -4.2652  -3.9396  -3.9394  -3.6925  -3.6924  -3.0160  -3.0159
    -2.7628  -2.7628   1.8711   1.8711   2.4464   2.4465   2.6251   2.6251
     3.7002   3.7002

          k = 0.3750 0.0000 0.0000 (133456 PWs)   bands (ev):

  -168.9223-168.9218-168.5709-168.5708-168.5502-168.5495-168.3733-168.3728
  -168.3354-168.3354 -51.6208 -51.6198 -48.1305 -48.1297 -48.1224 -48.1216
   -48.1163 -48.1155 -48.1132 -48.1124 -48.1088 -48.1080 -25.4980 -25.4915
   -25.4578 -25.4351 -25.4274 -25.4154 -13.6950 -13.5022 -13.3675 -13.3372
    -5.6630  -5.6583  -5.5962  -5.5903  -5.5884  -5.5778  -5.2293  -5.1636
    -5.0817  -5.0531  -5.0346  -5.0132  -4.9582  -4.9509  -4.6522  -4.5427
    -4.4216  -4.2816  -4.0294  -3.7207  -3.4543  -3.1751  -2.9142  -2.8868
    -2.7862  -2.6329   0.6429   0.8935   2.3510   2.4462   2.5428   2.7885
     3.0275   3.2652

          k = 0.3750 0.1248 0.0000 (133503 PWs)   bands (ev):

  -168.9223-168.9218-168.5709-168.5708-168.5502-168.5495-168.3733-168.3728
  -168.3354-168.3354 -51.6207 -51.6198 -48.1306 -48.1298 -48.1224 -48.1216
   -48.1163 -48.1155 -48.1132 -48.1124 -48.1088 -48.1080 -25.5024 -25.4971
   -25.4559 -25.4326 -25.4279 -25.4143 -13.6258 -13.4628 -13.3659 -13.3310
    -5.6695  -5.6654  -5.5987  -5.5886  -5.5877  -5.5709  -5.2311  -5.1664
    -5.1014  -5.0514  -5.0424  -5.0148  -4.9581  -4.9522  -4.8453  -4.6517
    -4.4022  -4.2515  -4.1470  -3.6582  -3.5909  -3.4303  -3.1564  -2.9424
    -2.5955  -2.5940   0.7356   0.8611   2.3629   2.4658   2.6200   3.0296
     3.5089   3.7501

          k = 0.3750 0.2497 0.0000 (133500 PWs)   bands (ev):

  -168.9223-168.9218-168.5709-168.5709-168.5502-168.5495-168.3733-168.3728
  -168.3354-168.3354 -51.6203 -51.6198 -48.1309 -48.1301 -48.1224 -48.1216
   -48.1163 -48.1155 -48.1132 -48.1124 -48.1088 -48.1080 -25.5105 -25.5077
   -25.4502 -25.4352 -25.4231 -25.4138 -13.4682 -13.3970 -13.3640 -13.3145
    -5.6954  -5.6950  -5.5983  -5.5896  -5.5821  -5.5468  -5.3662  -5.2650
    -5.1540  -5.0688  -5.0444  -5.0206  -4.9882  -4.9618  -4.9548  -4.9515
    -4.3247  -4.2089  -4.1693  -3.8282  -3.6745  -3.6329  -3.3816  -2.9287
    -2.8617  -2.6667   1.3773   1.4684   2.3337   2.5780   2.7093   3.0258
     3.8231   3.8679

          k = 0.3750-0.3745 0.0000 (133486 PWs)   bands (ev):

  -168.9223-168.9218-168.5709-168.5709-168.5502-168.5495-168.3733-168.3728
  -168.3354-168.3354 -51.6201 -51.6199 -48.1310 -48.1302 -48.1224 -48.1216
   -48.1163 -48.1155 -48.1132 -48.1124 -48.1088 -48.1080 -25.5136 -25.5135
   -25.4424 -25.4423 -25.4169 -25.4169 -13.3693 -13.3691 -13.3399 -13.3397
    -5.7286  -5.7286  -5.5926  -5.5926  -5.5587  -5.5587  -5.4253  -5.4253
    -5.1459  -5.1458  -5.0278  -5.0275  -5.0117  -5.0116  -4.9567  -4.9565
    -4.2318  -4.2317  -4.0243  -4.0243  -3.7469  -3.7468  -3.2169  -3.2167
    -2.8280  -2.8278   2.0648   2.0648   2.3757   2.3758   2.8881   2.8881
     3.9843   3.9844

          k =-0.5000 0.0000 0.0000 (133468 PWs)   bands (ev):

  -168.9223-168.9218-168.5709-168.5708-168.5502-168.5495-168.3733-168.3728
  -168.3354-168.3354 -51.6202 -51.6200 -48.1305 -48.1297 -48.1224 -48.1216
   -48.1163 -48.1155 -48.1132 -48.1124 -48.1088 -48.1080 -25.5059 -25.5057
   -25.4458 -25.4456 -25.4189 -25.4189 -13.5650 -13.5647 -13.3360 -13.3358
    -5.6641  -5.6640  -5.5856  -5.5856  -5.5847  -5.5846  -5.1928  -5.1927
    -5.0613  -5.0610  -5.0425  -5.0422  -4.9537  -4.9535  -4.8066  -4.8064
    -4.3466  -4.3465  -3.6155  -3.6153  -3.5583  -3.5582  -2.8550  -2.8547
    -2.7514  -2.7513   0.6664   0.6664   2.3870   2.3871   2.9142   2.9142
     3.0855   3.0857

          k =-0.5000 0.1248 0.0000 (133546 PWs)   bands (ev):

  -168.9223-168.9218-168.5709-168.5709-168.5502-168.5495-168.3733-168.3728
  -168.3354-168.3354 -51.6201 -51.6200 -48.1306 -48.1298 -48.1224 -48.1216
   -48.1163 -48.1155 -48.1132 -48.1124 -48.1088 -48.1080 -25.5105 -25.5103
   -25.4431 -25.4431 -25.4195 -25.4195 -13.5104 -13.5102 -13.3314 -13.3312
    -5.6726  -5.6725  -5.5875  -5.5875  -5.5803  -5.5803  -5.2005  -5.2004
    -5.0711  -5.0710  -5.0531  -5.0527  -4.9541  -4.9540  -4.9077  -4.9076
    -4.3286  -4.3285  -3.8641  -3.8639  -3.5629  -3.5628  -2.9636  -2.9633
    -2.6702  -2.6702   0.7043   0.7043   2.4211   2.4211   2.9695   2.9695
     3.7379   3.7379

          k =-0.5000 0.2497 0.0000 (133474 PWs)   bands (ev):

  -168.9223-168.9218-168.5709-168.5708-168.5502-168.5495-168.3733-168.3728
  -168.3354-168.3354 -51.6200 -51.6198 -48.1309 -48.1301 -48.1224 -48.1216
   -48.1163 -48.1155 -48.1132 -48.1124 -48.1088 -48.1080 -25.5191 -25.5189
   -25.4370 -25.4370 -25.4221 -25.4220 -13.4068 -13.4066 -13.3120 -13.3118
    -5.7105  -5.7105  -5.5876  -5.5876  -5.5689  -5.5689  -5.3562  -5.3561
    -5.1503  -5.1502  -5.0470  -5.0466  -5.0035  -5.0032  -4.9548  -4.9546
    -4.3112  -4.3110  -3.9611  -3.9611  -3.5983  -3.5982  -3.2656  -3.2655
    -2.7557  -2.7556   1.3579   1.3579   2.4555   2.4556   3.0470   3.0470
     3.8795   3.8797

          k =-0.5000-0.3745 0.0000 (133528 PWs)   bands (ev):

  -168.9223-168.9218-168.5709-168.5708-168.5502-168.5495-168.3733-168.3728
  -168.3354-168.3354 -51.6199 -51.6197 -48.1310 -48.1302 -48.1224 -48.1216
   -48.1163 -48.1155 -48.1132 -48.1124 -48.1088 -48.1080 -25.5232 -25.5231
   -25.4322 -25.4322 -25.4253 -25.4252 -13.3704 -13.3701 -13.2843 -13.2840
    -5.7620  -5.7619  -5.5872  -5.5872  -5.5344  -5.5344  -5.5177  -5.5176
    -5.1565  -5.1563  -5.0378  -5.0374  -5.0204  -5.0202  -4.9551  -4.9550
    -4.3172  -4.3171  -3.7844  -3.7844  -3.7257  -3.7256  -3.4789  -3.4788
    -2.8131  -2.8130   2.1390   2.1390   2.2417   2.2419   3.1500   3.1500
     3.7866   3.7867

 ------ SPIN DOWN ----------


          k = 0.0000 0.0000 0.0000 (133481 PWs)   bands (ev):

  -165.1272-165.1271-165.0100-165.0100-164.9281-164.9280-164.8930-164.8927
  -164.8854-164.8853 -50.3811 -50.3784 -48.1144 -48.1130 -48.1049 -48.1040
   -48.1024 -48.1014 -48.0975 -48.0966 -48.0933 -48.0924 -24.6637 -24.6472
   -24.6177 -24.5891 -24.5802 -24.5580 -14.0234 -13.4869 -13.3144 -13.3139
    -4.8123  -4.4883  -4.3512  -3.5873  -3.3477  -3.3429  -3.2958  -3.2819
    -3.2736  -3.1708  -3.1550  -2.7928  -2.7601  -2.7244  -2.6745  -2.6667
    -2.6179  -2.3712  -2.3465  -1.8748  -1.8323  -1.8199  -1.8018  -1.7277
    -1.6915  -1.1616   0.6900   1.3065   1.6665   2.2599   2.3695   2.6368
     2.7933   3.0122

          k = 0.0000 0.1248 0.0000 (133614 PWs)   bands (ev):

  -165.1272-165.1272-165.0101-165.0100-164.9281-164.9280-164.8930-164.8927
  -164.8854-164.8853 -50.3808 -50.3785 -48.1145 -48.1132 -48.1048 -48.1040
   -48.1024 -48.1014 -48.0975 -48.0966 -48.0933 -48.0924 -24.6679 -24.6600
   -24.6069 -24.5870 -24.5810 -24.5600 -13.9452 -13.4908 -13.3046 -13.2837
    -5.1013  -4.4650  -4.3398  -3.5760  -3.5272  -3.3774  -3.3551  -3.2944
    -3.2846  -3.1706  -3.0165  -2.9158  -2.7921  -2.7488  -2.6980  -2.6785
    -2.6781  -2.3702  -2.3224  -1.9092  -1.8339  -1.8180  -1.8179  -1.8087
    -1.6814  -1.4611   0.7871   1.5834   1.6742   2.0296   2.6732   2.7835
     3.0591   3.5045

          k = 0.0000 0.2497 0.0000 (133594 PWs)   bands (ev):

  -165.1272-165.1271-165.0100-165.0100-164.9281-164.9280-164.8930-164.8927
  -164.8854-164.8853 -50.3801 -50.3787 -48.1147 -48.1138 -48.1048 -48.1040
   -48.1023 -48.1015 -48.0975 -48.0966 -48.0933 -48.0924 -24.6768 -24.6760
   -24.5939 -24.5828 -24.5811 -24.5655 -13.7627 -13.5159 -13.2761 -13.2344
    -5.3899  -4.8409  -4.2248  -3.7596  -3.6261  -3.5574  -3.5376  -3.3992
    -3.2915  -3.2879  -2.9416  -2.8763  -2.7843  -2.7134  -2.7077  -2.6857
    -2.6702  -2.3531  -2.3526  -2.1259  -1.8453  -1.8382  -1.8255  -1.8162
    -1.6617  -1.6593   0.9285   1.3664   2.2965   2.4605   2.8338   3.1339
     3.3409   3.5704

          k = 0.0000-0.3745 0.0000 (133686 PWs)   bands (ev):

  -165.1272-165.1272-165.0100-165.0100-164.9281-164.9280-164.8930-164.8927
  -164.8854-164.8853 -50.3794 -50.3792 -48.1148 -48.1140 -48.1048 -48.1040
   -48.1023 -48.1015 -48.0975 -48.0966 -48.0933 -48.0924 -24.6819 -24.6818
   -24.5864 -24.5863 -24.5734 -24.5731 -13.5971 -13.5969 -13.2372 -13.2369
    -5.2944  -5.2944  -4.1006  -4.1005  -3.6375  -3.6374  -3.4709  -3.4707
    -3.2894  -3.2893  -2.8940  -2.8938  -2.7574  -2.7571  -2.6946  -2.6943
    -2.4947  -2.4944  -2.2864  -2.2863  -1.8434  -1.8432  -1.8210  -1.8209
    -1.6874  -1.6874   1.1127   1.1128   2.8956   2.8956   3.0363   3.0364
     3.5155   3.5156

          k = 0.1250 0.0000 0.0000 (133541 PWs)   bands (ev):

  -165.1272-165.1271-165.0100-165.0100-164.9281-164.9280-164.8930-164.8927
  -164.8854-164.8853 -50.3808 -50.3783 -48.1143 -48.1131 -48.1049 -48.1040
   -48.1024 -48.1014 -48.0974 -48.0966 -48.0932 -48.0924 -24.6598 -24.6438
   -24.6202 -24.5972 -24.5819 -24.5717 -13.9569 -13.4561 -13.3169 -13.3167
    -4.6956  -4.4323  -4.3272  -3.7558  -3.5119  -3.4899  -3.3409  -3.2978
    -3.2142  -3.1282  -3.0950  -2.8698  -2.7589  -2.7289  -2.6743  -2.6733
    -2.6692  -2.5713  -2.2626  -2.0275  -1.8701  -1.8339  -1.8281  -1.7889
    -1.7338  -1.2397   1.1135   1.1315   2.0280   2.0372   2.6044   2.7374
     2.9855   2.9992

          k = 0.1250 0.1248 0.0000 (133548 PWs)   bands (ev):

  -165.1272-165.1271-165.0100-165.0100-164.9281-164.9280-164.8930-164.8927
  -164.8854-164.8853 -50.3805 -50.3784 -48.1145 -48.1133 -48.1048 -48.1040
   -48.1023 -48.1014 -48.0974 -48.0966 -48.0932 -48.0924 -24.6639 -24.6559
   -24.6144 -24.5911 -24.5855 -24.5705 -13.8793 -13.4565 -13.3083 -13.2870
    -5.0050  -4.4175  -4.3140  -3.7577  -3.6359  -3.4601  -3.4284  -3.3038
    -3.2451  -3.1630  -3.0029  -2.9470  -2.8633  -2.7500  -2.7033  -2.6773
    -2.6768  -2.5709  -2.2578  -2.1430  -1.8542  -1.8349  -1.8341  -1.8192
    -1.6772  -1.4765   1.1868   1.4180   1.8695   1.9570   2.7912   2.9941
     3.1575   3.2490

          k = 0.1250 0.2497 0.0000 (133640 PWs)   bands (ev):

  -165.1272-165.1271-165.0100-165.0100-164.9281-164.9280-164.8930-164.8927
  -164.8854-164.8853 -50.3798 -50.3786 -48.1147 -48.1138 -48.1048 -48.1040
   -48.1023 -48.1015 -48.0974 -48.0966 -48.0932 -48.0924 -24.6728 -24.6717
   -24.6068 -24.5919 -24.5807 -24.5706 -13.6997 -13.4738 -13.2816 -13.2378
    -5.3223  -4.7837  -4.2435  -3.8653  -3.7825  -3.7450  -3.4159  -3.4064
    -3.3121  -3.2549  -2.9407  -2.8897  -2.8359  -2.7204  -2.6891  -2.6836
    -2.6782  -2.5660  -2.3744  -2.3262  -1.8475  -1.8396  -1.8347  -1.8342
    -1.6730  -1.6692   1.2772   1.7433   2.1862   2.2472   2.9510   3.0051
     3.6950   3.7198

          k = 0.1250-0.3745 0.0000 (133646 PWs)   bands (ev):

  -165.1272-165.1271-165.0100-165.0100-164.9281-164.9280-164.8930-164.8927
  -164.8854-164.8853 -50.3792 -50.3790 -48.1149 -48.1140 -48.1048 -48.1040
   -48.1023 -48.1015 -48.0974 -48.0966 -48.0932 -48.0924 -24.6777 -24.6777
   -24.5992 -24.5991 -24.5738 -24.5737 -13.5432 -13.5429 -13.2422 -13.2419
    -5.2453  -5.2453  -4.1443  -4.1443  -3.7972  -3.7971  -3.4071  -3.4070
    -3.2920  -3.2920  -2.8990  -2.8988  -2.7721  -2.7718  -2.6897  -2.6895
    -2.5273  -2.5272  -2.5005  -2.5002  -1.8464  -1.8462  -1.8337  -1.8335
    -1.7045  -1.7044   1.4756   1.4756   2.7902   2.7903   2.9458   2.9459
     3.7884   3.7884

          k = 0.2500 0.0000 0.0000 (133491 PWs)   bands (ev):

  -165.1272-165.1271-165.0100-165.0100-164.9281-164.9280-164.8930-164.8927
  -164.8854-164.8853 -50.3800 -50.3781 -48.1143 -48.1132 -48.1049 -48.1040
   -48.1023 -48.1014 -48.0973 -48.0964 -48.0932 -48.0924 -24.6539 -24.6412
   -24.6344 -24.6019 -24.6005 -24.5870 -13.7859 -13.4086 -13.3206 -13.3038
    -4.4463  -4.3191  -4.2650  -4.0971  -3.9109  -3.8957  -3.3768  -3.2706
    -3.1681  -3.0800  -3.0246  -2.9677  -2.8870  -2.7870  -2.7479  -2.6998
    -2.6854  -2.6742  -2.2856  -2.1756  -1.8892  -1.8566  -1.8356  -1.8306
    -1.7519  -1.4171   0.9189   1.5438   1.8726   2.5930   2.7134   2.8871
     2.9202   3.1512

          k = 0.2500 0.1248 0.0000 (133477 PWs)   bands (ev):

  -165.1272-165.1271-165.0100-165.0100-164.9281-164.9280-164.8930-164.8927
  -164.8854-164.8853 -50.3798 -50.3781 -48.1144 -48.1134 -48.1048 -48.1040
   -48.1023 -48.1015 -48.0973 -48.0964 -48.0932 -48.0924 -24.6584 -24.6494
   -24.6362 -24.6059 -24.5928 -24.5828 -13.7100 -13.3929 -13.3149 -13.2822
    -4.8095  -4.3966  -4.3287  -3.9480  -3.9271  -3.7995  -3.6231  -3.3031
    -3.2166  -3.1316  -3.0132  -2.9856  -2.9648  -2.7902  -2.7346  -2.7001
    -2.6914  -2.6726  -2.3210  -2.1995  -1.8925  -1.8756  -1.8381  -1.8245
    -1.6944  -1.5430   1.0932   1.4256   1.9542   2.5279   2.8402   2.9498
     3.3253   3.7375

          k = 0.2500 0.2497 0.0000 (133591 PWs)   bands (ev):

  -165.1272-165.1271-165.0100-165.0100-164.9281-164.9280-164.8930-164.8927
  -164.8854-164.8853 -50.3792 -50.3782 -48.1147 -48.1138 -48.1048 -48.1040
   -48.1023 -48.1015 -48.0973 -48.0964 -48.0932 -48.0924 -24.6679 -24.6657
   -24.6304 -24.6141 -24.5822 -24.5784 -13.5385 -13.3819 -13.2951 -13.2386
    -5.2246  -4.7947  -4.3057  -3.9677  -3.9439  -3.9245  -3.7006  -3.5914
    -3.2137  -3.1553  -2.9687  -2.9511  -2.9191  -2.7753  -2.7186  -2.7052
    -2.6972  -2.6709  -2.5088  -2.3490  -1.8995  -1.8992  -1.8237  -1.8221
    -1.7077  -1.6932   1.6826   1.8769   2.2781   2.3396   2.9706   2.9873
     3.7257   3.8501

          k = 0.2500-0.3745 0.0000 (133622 PWs)   bands (ev):

  -165.1272-165.1271-165.0100-165.0100-164.9281-164.9280-164.8930-164.8927
  -164.8854-164.8853 -50.3787 -50.3785 -48.1149 -48.1141 -48.1048 -48.1040
   -48.1023 -48.1015 -48.0973 -48.0964 -48.0932 -48.0924 -24.6726 -24.6726
   -24.6225 -24.6223 -24.5777 -24.5777 -13.4122 -13.4119 -13.2515 -13.2511
    -5.2291  -5.2290  -4.1984  -4.1982  -3.9285  -3.9283  -3.6730  -3.6730
    -3.1749  -3.1749  -2.9491  -2.9489  -2.8109  -2.8109  -2.7182  -2.7180
    -2.6569  -2.6566  -2.5760  -2.5759  -1.9041  -1.9039  -1.8206  -1.8203
    -1.7339  -1.7338   2.0565   2.0565   2.7042   2.7042   2.8616   2.8617
     3.9457   3.9457

          k = 0.3750 0.0000 0.0000 (133456 PWs)   bands (ev):

  -165.1272-165.1271-165.0100-165.0100-164.9281-164.9280-164.8930-164.8927
  -164.8854-164.8853 -50.3791 -50.3781 -48.1142 -48.1133 -48.1049 -48.1040
   -48.1023 -48.1015 -48.0971 -48.0963 -48.0932 -48.0923 -24.6683 -24.6651
   -24.6214 -24.6107 -24.6013 -24.5957 -13.5906 -13.4169 -13.3106 -13.2642
    -4.6401  -4.5586  -4.3193  -4.2138  -3.9917  -3.7314  -3.4126  -3.2854
    -3.2322  -3.1362  -3.0087  -2.9779  -2.9275  -2.8789  -2.7593  -2.7204
    -2.6904  -2.6759  -2.2880  -2.2044  -1.9516  -1.9362  -1.8408  -1.8352
    -1.6958  -1.5633   0.8283   1.0865   2.5852   2.6442   2.7856   3.0547
     3.2562   3.5479

          k = 0.3750 0.1248 0.0000 (133503 PWs)   bands (ev):

  -165.1272-165.1271-165.0100-165.0100-164.9281-164.9280-164.8930-164.8927
  -164.8854-164.8853 -50.3789 -50.3780 -48.1144 -48.1135 -48.1048 -48.1040
   -48.1023 -48.1015 -48.0971 -48.0963 -48.0932 -48.0923 -24.6720 -24.6701
   -24.6265 -24.6135 -24.5943 -24.5925 -13.5187 -13.3809 -13.3088 -13.2511
    -4.8801  -4.6986  -4.3066  -4.1961  -4.0975  -3.6421  -3.5906  -3.3976
    -3.2974  -3.1228  -3.0262  -2.9835  -2.9431  -2.8627  -2.7544  -2.7245
    -2.6903  -2.6759  -2.3107  -2.2546  -1.9538  -1.9401  -1.8197  -1.8141
    -1.6809  -1.6182   0.9232   1.0517   2.5865   2.6663   2.8633   3.2616
     3.7268   3.9420

          k = 0.3750 0.2497 0.0000 (133500 PWs)   bands (ev):

  -165.1272-165.1271-165.0100-165.0100-164.9281-164.9280-164.8930-164.8927
  -164.8854-164.8853 -50.3785 -50.3779 -48.1148 -48.1139 -48.1048 -48.1040
   -48.1023 -48.1015 -48.0971 -48.0963 -48.0932 -48.0923 -24.6809 -24.6802
   -24.6277 -24.6180 -24.5879 -24.5872 -13.3563 -13.3298 -13.3056 -13.2127
    -5.2988  -5.1062  -4.2528  -4.1742  -4.1094  -3.7682  -3.6528  -3.6394
    -3.3500  -3.1298  -3.0086  -2.9950  -2.9256  -2.8497  -2.7420  -2.7349
    -2.6900  -2.6744  -2.4767  -2.4672  -1.9538  -1.9457  -1.8093  -1.7952
    -1.7237  -1.7223   1.5733   1.6740   2.5427   2.7919   2.9504   3.2684
     3.9798   4.0759

          k = 0.3750-0.3745 0.0000 (133486 PWs)   bands (ev):

  -165.1272-165.1271-165.0100-165.0100-164.9281-164.9280-164.8930-164.8927
  -164.8854-164.8853 -50.3782 -50.3780 -48.1149 -48.1141 -48.1048 -48.1040
   -48.1023 -48.1015 -48.0971 -48.0963 -48.0932 -48.0923 -24.6855 -24.6853
   -24.6233 -24.6232 -24.5856 -24.5855 -13.3108 -13.3106 -13.2253 -13.2248
    -5.4118  -5.4118  -4.1904  -4.1903  -3.9860  -3.9859  -3.6966  -3.6965
    -3.2403  -3.2401  -3.0000  -2.9998  -2.8609  -2.8608  -2.7261  -2.7259
    -2.6698  -2.6696  -2.6323  -2.6322  -1.9507  -1.9505  -1.7993  -1.7991
    -1.7543  -1.7542   2.2698   2.2698   2.6178   2.6179   3.1162   3.1162
     4.1403   4.1403

          k =-0.5000 0.0000 0.0000 (133468 PWs)   bands (ev):

  -165.1272-165.1271-165.0100-165.0100-164.9281-164.9280-164.8930-164.8927
  -164.8854-164.8853 -50.3785 -50.3783 -48.1142 -48.1134 -48.1049 -48.1040
   -48.1023 -48.1015 -48.0971 -48.0962 -48.0931 -48.0923 -24.6780 -24.6777
   -24.6077 -24.6076 -24.6047 -24.6046 -13.4667 -13.4663 -13.2743 -13.2741
    -4.8037  -4.8035  -4.2633  -4.2632  -3.6303  -3.6301  -3.5396  -3.5395
    -3.2132  -3.2131  -2.9401  -2.9401  -2.9144  -2.9143  -2.7461  -2.7461
    -2.6814  -2.6811  -2.2587  -2.2587  -1.9604  -1.9603  -1.8344  -1.8342
    -1.6382  -1.6379   0.8507   0.8507   2.6205   2.6205   3.1485   3.1487
     3.3291   3.3293

          k =-0.5000 0.1248 0.0000 (133546 PWs)   bands (ev):

  -165.1272-165.1271-165.0100-165.0100-164.9281-164.9280-164.8930-164.8927
  -164.8854-164.8853 -50.3784 -50.3782 -48.1144 -48.1136 -48.1048 -48.1040
   -48.1023 -48.1015 -48.0971 -48.0962 -48.0931 -48.0923 -24.6822 -24.6820
   -24.6134 -24.6132 -24.5980 -24.5979 -13.4118 -13.4114 -13.2670 -13.2667
    -4.9592  -4.9591  -4.2636  -4.2635  -3.8282  -3.8280  -3.5208  -3.5206
    -3.1834  -3.1833  -2.9931  -2.9931  -2.9105  -2.9104  -2.7478  -2.7478
    -2.6815  -2.6812  -2.3033  -2.3032  -1.9618  -1.9617  -1.8100  -1.8097
    -1.6582  -1.6580   0.8890   0.8890   2.6495   2.6495   3.1849   3.1850
     4.0026   4.0028

          k =-0.5000 0.2497 0.0000 (133474 PWs)   bands (ev):

  -165.1272-165.1271-165.0100-165.0100-164.9281-164.9280-164.8930-164.8927
  -164.8854-164.8853 -50.3781 -50.3779 -48.1148 -48.1139 -48.1048 -48.1040
   -48.1023 -48.1015 -48.0971 -48.0962 -48.0931 -48.0923 -24.6911 -24.6909
   -24.6155 -24.6154 -24.5934 -24.5933 -13.3225 -13.3222 -13.2264 -13.2261
    -5.3357  -5.3356  -4.2670  -4.2669  -3.8850  -3.8849  -3.5716  -3.5714
    -3.3087  -3.3084  -3.0103  -3.0101  -2.8980  -2.8979  -2.7470  -2.7469
    -2.6806  -2.6803  -2.4926  -2.4925  -1.9630  -1.9628  -1.7917  -1.7914
    -1.7346  -1.7344   1.5559   1.5560   2.6786   2.6786   3.2675   3.2676
     4.0706   4.0707

          k =-0.5000-0.3745 0.0000 (133528 PWs)   bands (ev):

  -165.1272-165.1271-165.0100-165.0100-164.9281-164.9280-164.8930-164.8927
  -164.8854-164.8853 -50.3780 -50.3778 -48.1149 -48.1141 -48.1048 -48.1040
   -48.1023 -48.1015 -48.0971 -48.0962 -48.0931 -48.0923 -24.6956 -24.6954
   -24.6154 -24.6153 -24.5922 -24.5922 -13.3015 -13.3013 -13.1796 -13.1793
    -5.5336  -5.5336  -4.2689  -4.2688  -3.7737  -3.7736  -3.7021  -3.7018
    -3.3870  -3.3867  -2.9986  -2.9984  -2.8977  -2.8975  -2.7297  -2.7295
    -2.6722  -2.6719  -2.6308  -2.6307  -1.9633  -1.9631  -1.7828  -1.7825
    -1.7708  -1.7706   2.3565   2.3565   2.4642   2.4643   3.3994   3.3995
     3.8755   3.8756

     the Fermi energy is    -1.9659 ev

!    total energy              =   -2806.71685163 Ry
     estimated scf accuracy    <       0.00000072 Ry
     smearing contrib. (-TS)   =      -0.00005202 Ry
     internal energy E=F+TS    =   -2806.71679961 Ry

     The total energy is F=E-TS. E is the sum of the following terms:
     one-electron contribution =  -12181.50215163 Ry
     hartree contribution      =    6045.49617816 Ry
     xc contribution           =    -250.59096569 Ry
     ewald contribution        =    3579.88013955 Ry

     total magnetization       =     5.99 Bohr mag/cell
     absolute magnetization    =     6.04 Bohr mag/cell

     convergence has been achieved in  39 iterations

     negative rho (up, down):  1.742E-04 1.245E-04

     Forces acting on atoms (cartesian axes, Ry/au):

     atom    1 type  1   force =     0.00000000    0.00000000   -0.00151330
     atom    2 type  1   force =     0.00000000    0.00000000    0.00143014
     atom    3 type  3   force =     0.00000000    0.00000000   -0.00841189
     atom    4 type  3   force =     0.00000000    0.00000000    0.00805250
     atom    5 type  2   force =     0.00000000    0.00000000   -0.00246778
     atom    6 type  2   force =     0.00000000    0.00000000    0.00291032

     Total force =     0.012430     Total SCF correction =     0.003076
     SCF correction compared to forces is large: reduce conv_thr to get better values


     Computing stress (Cartesian axis) and pressure


     negative rho (up, down):  1.742E-04 1.245E-04
          total   stress  (Ry/bohr**3)                   (kbar)     P=        5.89
   0.00005726   0.00000000   0.00000000            8.42        0.00        0.00
   0.00000000   0.00004311   0.00000000            0.00        6.34        0.00
   0.00000000   0.00000000   0.00001972            0.00        0.00        2.90


     BFGS Geometry Optimization
     Energy error            =      0.0E+00 Ry
     Gradient error          =      8.4E-03 Ry/Bohr
     Cell gradient error     =      8.4E+00 kbar

     number of scf cycles    =   1
     number of bfgs steps    =   0

     enthalpy           new  =   -2806.7168516335 Ry

     new trust radius        =       0.0183277744 bohr
     new conv_thr            =       0.0000010000 Ry

     new unit-cell volume =   4108.19242 a.u.^3 (   608.77131 Ang^3 )
     density =      2.03553 g/cm^3

CELL_PARAMETERS (alat=  7.90396849)
   1.001431525   0.000000000   0.000000000
   0.000000000   1.336493661   0.000000000
   0.000000000   0.000000000   6.216229140

ATOMIC_POSITIONS (angstrom)
Er            2.0942937479        2.7950091935        4.3993991979
Er            0.0000000000        0.0000000000        2.1527567978
I             2.0942937479        0.0000000000       -0.0044513779
I             0.0000000000        2.7950091935        6.5564612012
Se            0.0000000000        2.7950091935        2.4780941073
Se            2.0942937479        0.0000000000        4.0743400739



     Writing output data file ./tmp/ErSeI_vc-relax_monolayer_155.save/
     NEW-OLD atomic charge density approx. for the potential

     negative rho (up, down):  3.079E-04 3.030E-04
     extrapolated charge  110.27548, renormalised to  110.00000
     Generating pointlists ...

     total cpu time spent up to now is      584.6 secs

     Self-consistent Calculation

     iteration #  1     ecut=   155.00 Ry     beta= 0.10
     Davidson diagonalization with overlap
     c_bands:  1 eigenvalues not converged
     c_bands:  2 eigenvalues not converged
     c_bands:  1 eigenvalues not converged
     c_bands:  1 eigenvalues not converged
     c_bands:  3 eigenvalues not converged
     c_bands:  1 eigenvalues not converged
     c_bands:  2 eigenvalues not converged
     c_bands:  2 eigenvalues not converged
     c_bands:  1 eigenvalues not converged
     c_bands:  1 eigenvalues not converged
     c_bands:  2 eigenvalues not converged
     c_bands:  2 eigenvalues not converged
     c_bands:  3 eigenvalues not converged
     c_bands:  2 eigenvalues not converged
     c_bands:  4 eigenvalues not converged
     c_bands:  1 eigenvalues not converged
     c_bands:  1 eigenvalues not converged
     c_bands:  2 eigenvalues not converged
     c_bands:  1 eigenvalues not converged
     c_bands:  2 eigenvalues not converged
     c_bands:  1 eigenvalues not converged
     c_bands:  3 eigenvalues not converged
     c_bands:  2 eigenvalues not converged
     c_bands:  2 eigenvalues not converged
     c_bands:  2 eigenvalues not converged
     c_bands:  2 eigenvalues not converged
     c_bands:  2 eigenvalues not converged
     c_bands:  2 eigenvalues not converged
     c_bands:  2 eigenvalues not converged
     ethr =  1.00E-06,  avg # of iterations = 19.8

     negative rho (up, down):  9.114E-05 7.709E-05

     total cpu time spent up to now is      624.7 secs

     total energy              =   -2806.52819293 Ry
     estimated scf accuracy    <       0.50940119 Ry

     total magnetization       =     6.04 Bohr mag/cell
     absolute magnetization    =     6.16 Bohr mag/cell

     iteration #  2     ecut=   155.00 Ry     beta= 0.10
     Davidson diagonalization with overlap
     ethr =  4.63E-04,  avg # of iterations = 11.8

     negative rho (up, down):  8.054E-05 6.782E-05

     total cpu time spent up to now is      646.8 secs

     total energy              =   -2806.52901858 Ry
     estimated scf accuracy    <      12.85673810 Ry

     total magnetization       =     1.47 Bohr mag/cell
     absolute magnetization    =     1.78 Bohr mag/cell

     iteration #  3     ecut=   155.00 Ry     beta= 0.10
     Davidson diagonalization with overlap
     ethr =  4.63E-04,  avg # of iterations =  1.1

     negative rho (up, down):  7.498E-05 6.207E-05

     total cpu time spent up to now is      659.7 secs

     total energy              =   -2806.71836844 Ry
     estimated scf accuracy    <       0.03665214 Ry

     total magnetization       =     5.93 Bohr mag/cell
     absolute magnetization    =     5.98 Bohr mag/cell

     iteration #  4     ecut=   155.00 Ry     beta= 0.10
     Davidson diagonalization with overlap
     c_bands:  2 eigenvalues not converged
     c_bands:  2 eigenvalues not converged
     c_bands:  2 eigenvalues not converged
     ethr =  3.33E-05,  avg # of iterations =  9.6

     negative rho (up, down):  6.679E-05 5.398E-05

     total cpu time spent up to now is      677.7 secs

     total energy              =   -2806.71874159 Ry
     estimated scf accuracy    <       0.02786313 Ry

     total magnetization       =     5.95 Bohr mag/cell
     absolute magnetization    =     6.00 Bohr mag/cell

     iteration #  5     ecut=   155.00 Ry     beta= 0.10
     Davidson diagonalization with overlap
     ethr =  2.53E-05,  avg # of iterations =  1.6

     negative rho (up, down):  6.529E-05 5.194E-05

     total cpu time spent up to now is      690.7 secs

     total energy              =   -2806.71779663 Ry
     estimated scf accuracy    <       0.02073203 Ry

     total magnetization       =     5.96 Bohr mag/cell
     absolute magnetization    =     6.01 Bohr mag/cell

     iteration #  6     ecut=   155.00 Ry     beta= 0.10
     Davidson diagonalization with overlap
     ethr =  1.88E-05,  avg # of iterations =  2.1

     negative rho (up, down):  6.368E-05 4.973E-05

     total cpu time spent up to now is      704.2 secs

     total energy              =   -2806.71761654 Ry
     estimated scf accuracy    <       0.00862897 Ry

     total magnetization       =     5.96 Bohr mag/cell
     absolute magnetization    =     6.01 Bohr mag/cell

     iteration #  7     ecut=   155.00 Ry     beta= 0.10
     Davidson diagonalization with overlap
     c_bands:  1 eigenvalues not converged
     c_bands:  2 eigenvalues not converged
     c_bands:  2 eigenvalues not converged
     ethr =  7.84E-06,  avg # of iterations =  3.8

     negative rho (up, down):  6.010E-05 4.586E-05

     total cpu time spent up to now is      718.8 secs

     total energy              =   -2806.71761532 Ry
     estimated scf accuracy    <       0.00529595 Ry

     total magnetization       =     5.96 Bohr mag/cell
     absolute magnetization    =     6.01 Bohr mag/cell

     iteration #  8     ecut=   155.00 Ry     beta= 0.10
     Davidson diagonalization with overlap
     c_bands:  3 eigenvalues not converged
     ethr =  4.81E-06,  avg # of iterations =  3.2

     negative rho (up, down):  7.018E-05 5.311E-05

     total cpu time spent up to now is      732.9 secs

     total energy              =   -2806.71729600 Ry
     estimated scf accuracy    <       0.00413628 Ry

     total magnetization       =     5.96 Bohr mag/cell
     absolute magnetization    =     6.01 Bohr mag/cell

     iteration #  9     ecut=   155.00 Ry     beta= 0.10
     Davidson diagonalization with overlap
     ethr =  3.76E-06,  avg # of iterations =  5.2

     negative rho (up, down):  7.228E-05 5.362E-05

     total cpu time spent up to now is      748.2 secs

     total energy              =   -2806.71736988 Ry
     estimated scf accuracy    <       0.00114902 Ry

     total magnetization       =     5.96 Bohr mag/cell
     absolute magnetization    =     6.02 Bohr mag/cell

     iteration # 10     ecut=   155.00 Ry     beta= 0.10
     Davidson diagonalization with overlap
     ethr =  1.04E-06,  avg # of iterations =  3.5

     negative rho (up, down):  1.067E-04 7.894E-05

     total cpu time spent up to now is      762.4 secs

     total energy              =   -2806.71730462 Ry
     estimated scf accuracy    <       0.00049460 Ry

     total magnetization       =     5.97 Bohr mag/cell
     absolute magnetization    =     6.02 Bohr mag/cell

     iteration # 11     ecut=   155.00 Ry     beta= 0.10
     Davidson diagonalization with overlap
     c_bands:  2 eigenvalues not converged
     ethr =  4.50E-07,  avg # of iterations =  4.9

     negative rho (up, down):  1.076E-04 7.803E-05

     total cpu time spent up to now is      778.2 secs

     total energy              =   -2806.71740337 Ry
     estimated scf accuracy    <       0.00028937 Ry

     total magnetization       =     6.00 Bohr mag/cell
     absolute magnetization    =     6.06 Bohr mag/cell

     iteration # 12     ecut=   155.00 Ry     beta= 0.10
     Davidson diagonalization with overlap
     ethr =  2.63E-07,  avg # of iterations =  1.1

     negative rho (up, down):  1.259E-04 9.115E-05

     total cpu time spent up to now is      790.9 secs

     total energy              =   -2806.71743343 Ry
     estimated scf accuracy    <       0.00027407 Ry

     total magnetization       =     6.00 Bohr mag/cell
     absolute magnetization    =     6.06 Bohr mag/cell

     iteration # 13     ecut=   155.00 Ry     beta= 0.10
     Davidson diagonalization with overlap
     ethr =  2.49E-07,  avg # of iterations =  1.0

     negative rho (up, down):  1.124E-04 7.895E-05

     total cpu time spent up to now is      803.5 secs

     total energy              =   -2806.71744980 Ry
     estimated scf accuracy    <       0.00044649 Ry

     total magnetization       =     6.00 Bohr mag/cell
     absolute magnetization    =     6.06 Bohr mag/cell

     iteration # 14     ecut=   155.00 Ry     beta= 0.10
     Davidson diagonalization with overlap
     ethr =  2.49E-07,  avg # of iterations =  1.0

     negative rho (up, down):  1.133E-04 7.837E-05

     total cpu time spent up to now is      816.2 secs

     total energy              =   -2806.71744298 Ry
     estimated scf accuracy    <       0.00047535 Ry

     total magnetization       =     6.00 Bohr mag/cell
     absolute magnetization    =     6.06 Bohr mag/cell

     iteration # 15     ecut=   155.00 Ry     beta= 0.10
     Davidson diagonalization with overlap
     ethr =  2.49E-07,  avg # of iterations =  1.0

     negative rho (up, down):  1.036E-04 6.978E-05

     total cpu time spent up to now is      828.9 secs

     total energy              =   -2806.71742896 Ry
     estimated scf accuracy    <       0.00022603 Ry

     total magnetization       =     6.00 Bohr mag/cell
     absolute magnetization    =     6.06 Bohr mag/cell

     iteration # 16     ecut=   155.00 Ry     beta= 0.10
     Davidson diagonalization with overlap
     ethr =  2.05E-07,  avg # of iterations =  1.1

     negative rho (up, down):  1.440E-04 1.016E-04

     total cpu time spent up to now is      841.8 secs

     total energy              =   -2806.71744796 Ry
     estimated scf accuracy    <       0.00004322 Ry

     total magnetization       =     5.98 Bohr mag/cell
     absolute magnetization    =     6.04 Bohr mag/cell

     iteration # 17     ecut=   155.00 Ry     beta= 0.10
     Davidson diagonalization with overlap
     ethr =  3.93E-08,  avg # of iterations =  1.9

     negative rho (up, down):  1.733E-04 1.270E-04

     total cpu time spent up to now is      855.7 secs

     total energy              =   -2806.71746095 Ry
     estimated scf accuracy    <       0.00012730 Ry

     total magnetization       =     6.00 Bohr mag/cell
     absolute magnetization    =     6.06 Bohr mag/cell

     iteration # 18     ecut=   155.00 Ry     beta= 0.10
     Davidson diagonalization with overlap
     ethr =  3.93E-08,  avg # of iterations =  1.0

     negative rho (up, down):  1.817E-04 1.344E-04

     total cpu time spent up to now is      868.6 secs

     total energy              =   -2806.71746921 Ry
     estimated scf accuracy    <       0.00000941 Ry

     total magnetization       =     5.99 Bohr mag/cell
     absolute magnetization    =     6.05 Bohr mag/cell

     iteration # 19     ecut=   155.00 Ry     beta= 0.10
     Davidson diagonalization with overlap
     ethr =  8.56E-09,  avg # of iterations =  1.0

     negative rho (up, down):  1.882E-04 1.400E-04

     total cpu time spent up to now is      881.2 secs

     total energy              =   -2806.71747267 Ry
     estimated scf accuracy    <       0.00001826 Ry

     total magnetization       =     5.99 Bohr mag/cell
     absolute magnetization    =     6.05 Bohr mag/cell

     iteration # 20     ecut=   155.00 Ry     beta= 0.10
     Davidson diagonalization with overlap
     ethr =  8.56E-09,  avg # of iterations =  1.0

     negative rho (up, down):  1.962E-04 1.475E-04

     total cpu time spent up to now is      893.8 secs

     total energy              =   -2806.71747616 Ry
     estimated scf accuracy    <       0.00000279 Ry

     total magnetization       =     5.99 Bohr mag/cell
     absolute magnetization    =     6.05 Bohr mag/cell

     iteration # 21     ecut=   155.00 Ry     beta= 0.10
     Davidson diagonalization with overlap
     ethr =  2.54E-09,  avg # of iterations =  1.1

     negative rho (up, down):  1.772E-04 1.268E-04
 
     Magnetic moment per site  (integrated on atomic sphere of radius R)
     atom   1 (R=0.277)  charge= 29.4116  magn=  2.7894
     atom   2 (R=0.277)  charge= 29.4115  magn=  2.7894
     atom   3 (R=0.296)  charge=  4.8860  magn=  0.0532
     atom   4 (R=0.296)  charge=  4.8861  magn=  0.0532
     atom   5 (R=0.277)  charge= 14.6205  magn=  0.0828
     atom   6 (R=0.277)  charge= 14.6204  magn=  0.0828

     total cpu time spent up to now is      906.5 secs

     End of self-consistent calculation

 ------ SPIN UP ------------


          k = 0.0000 0.0000 0.0000 (133481 PWs)   bands (ev):

  -168.9406-168.9403-168.5896-168.5896-168.5700-168.5699-168.3918-168.3917
  -168.3544-168.3542 -51.6457 -51.6431 -48.1452 -48.1445 -48.1370 -48.1367
   -48.1310 -48.1304 -48.1279 -48.1277 -48.1234 -48.1232 -25.5026 -25.4877
   -25.4541 -25.4476 -25.4438 -25.4266 -14.1185 -13.5463 -13.4248 -13.3918
    -5.6653  -5.6462  -5.6424  -5.6408  -5.6363  -5.5949  -5.2420  -5.2077
    -5.1162  -5.0606  -5.0375  -5.0104  -4.9891  -4.9728  -4.8305  -4.5979
    -4.3927  -3.6216  -3.4207  -3.3841  -3.2068  -3.2012  -2.8334  -2.5441
    -2.0658  -1.9925   0.5264   1.0512   1.4594   2.0225   2.2241   2.4041
     2.5804   2.6925

          k = 0.0000 0.1247 0.0000 (133614 PWs)   bands (ev):

  -168.9406-168.9403-168.5897-168.5896-168.5700-168.5699-168.3918-168.3917
  -168.3544-168.3542 -51.6455 -51.6432 -48.1453 -48.1447 -48.1370 -48.1367
   -48.1310 -48.1305 -48.1279 -48.1277 -48.1234 -48.1232 -25.5083 -25.4947
   -25.4522 -25.4432 -25.4408 -25.4284 -14.0408 -13.5511 -13.3975 -13.3853
    -5.6643  -5.6478  -5.6474  -5.6398  -5.6379  -5.5846  -5.2393  -5.2125
    -5.2095  -5.0633  -5.0585  -5.0312  -5.0086  -4.9893  -4.9736  -4.4915
    -4.4168  -3.6259  -3.5489  -3.4090  -3.3480  -3.1135  -2.8160  -2.6547
    -2.4229  -2.1518   0.6169   1.3788   1.4091   1.7985   2.4623   2.6786
     2.7343   3.3722

          k = 0.0000 0.2494 0.0000 (133594 PWs)   bands (ev):

  -168.9406-168.9403-168.5897-168.5896-168.5700-168.5699-168.3918-168.3917
  -168.3544-168.3542 -51.6449 -51.6436 -48.1454 -48.1450 -48.1370 -48.1367
   -48.1309 -48.1306 -48.1279 -48.1277 -48.1234 -48.1232 -25.5168 -25.5082
   -25.4470 -25.4367 -25.4361 -25.4333 -13.8553 -13.5818 -13.3670 -13.3514
    -5.6614  -5.6611  -5.6519  -5.6466  -5.6373  -5.5795  -5.4804  -5.2320
    -5.2148  -5.0934  -5.0597  -5.0176  -5.0057  -4.9917  -4.9757  -4.7887
    -4.2985  -3.7907  -3.6182  -3.5976  -3.5350  -3.4798  -2.7581  -2.7234
    -2.4333  -2.3789   0.7464   1.1692   2.0711   2.1649   2.6178   2.7995
     3.2348   3.4068

          k = 0.0000-0.3741 0.0000 (133686 PWs)   bands (ev):

  -168.9406-168.9403-168.5897-168.5896-168.5700-168.5699-168.3918-168.3917
  -168.3544-168.3542 -51.6442 -51.6440 -48.1455 -48.1452 -48.1370 -48.1367
   -48.1308 -48.1306 -48.1279 -48.1277 -48.1234 -48.1232 -25.5175 -25.5174
   -25.4401 -25.4400 -25.4341 -25.4341 -13.6766 -13.6763 -13.3452 -13.3450
    -5.6736  -5.6735  -5.6569  -5.6569  -5.6309  -5.6308  -5.3203  -5.3203
    -5.2229  -5.2229  -5.0241  -5.0241  -5.0074  -5.0073  -4.9712  -4.9712
    -4.1725  -4.1723  -3.6230  -3.6229  -3.5664  -3.5659  -2.6411  -2.6409
    -2.5243  -2.5242   0.9234   0.9236   2.6624   2.6627   2.7050   3.3559
     3.3561   3.8511

          k = 0.1248 0.0000 0.0000 (133541 PWs)   bands (ev):

  -168.9406-168.9403-168.5896-168.5896-168.5700-168.5699-168.3918-168.3917
  -168.3544-168.3542 -51.6454 -51.6431 -48.1452 -48.1445 -48.1370 -48.1367
   -48.1310 -48.1305 -48.1279 -48.1276 -48.1234 -48.1232 -25.4996 -25.4853
   -25.4676 -25.4453 -25.4432 -25.4374 -14.0553 -13.5164 -13.4274 -13.3920
    -5.6694  -5.6527  -5.6367  -5.6364  -5.6313  -5.5940  -5.2450  -5.2059
    -5.1031  -5.0606  -5.0426  -5.0133  -4.9875  -4.9719  -4.7303  -4.5346
    -4.3796  -3.7888  -3.5146  -3.3635  -3.2763  -3.2003  -3.1554  -2.4270
    -2.3656  -2.2041   0.8973   0.9412   1.7980   1.8191   2.3819   2.4851
     2.6875   2.8525

          k = 0.1248 0.1247 0.0000 (133548 PWs)   bands (ev):

  -168.9406-168.9403-168.5896-168.5896-168.5700-168.5699-168.3918-168.3917
  -168.3544-168.3542 -51.6452 -51.6431 -48.1453 -48.1447 -48.1370 -48.1367
   -48.1310 -48.1305 -48.1279 -48.1276 -48.1234 -48.1232 -25.5055 -25.4927
   -25.4655 -25.4439 -25.4391 -25.4369 -13.9784 -13.5168 -13.4016 -13.3862
    -5.6705  -5.6558  -5.6413  -5.6341  -5.6323  -5.5838  -5.2423  -5.2131
    -5.1402  -5.0620  -5.0556  -5.0125  -5.0043  -4.9875  -4.9730  -4.4490
    -4.3893  -3.8005  -3.6690  -3.3724  -3.2373  -3.2261  -3.1524  -2.8468
    -2.3722  -2.3528   1.0088   1.1795   1.6366   1.7510   2.5470   2.6931
     3.0530   3.0773

          k = 0.1248 0.2494 0.0000 (133640 PWs)   bands (ev):

  -168.9406-168.9403-168.5897-168.5896-168.5700-168.5699-168.3918-168.3917
  -168.3544-168.3542 -51.6446 -51.6434 -48.1454 -48.1451 -48.1370 -48.1367
   -48.1309 -48.1306 -48.1279 -48.1276 -48.1234 -48.1232 -25.5143 -25.5064
   -25.4602 -25.4468 -25.4332 -25.4330 -13.7957 -13.5394 -13.3699 -13.3558
    -5.6776  -5.6690  -5.6455  -5.6355  -5.6308  -5.5695  -5.4249  -5.2368
    -5.2074  -5.0831  -5.0585  -5.0137  -5.0127  -4.9878  -4.9753  -4.7289
    -4.3145  -3.8792  -3.8361  -3.7896  -3.3621  -3.3295  -3.1240  -2.8380
    -2.6511  -2.3850   1.0895   1.5433   1.9259   2.0139   2.7045   2.7047
     3.5012   3.5844

          k = 0.1248-0.3741 0.0000 (133646 PWs)   bands (ev):

  -168.9406-168.9403-168.5897-168.5896-168.5700-168.5699-168.3918-168.3917
  -168.3543-168.3542 -51.6441 -51.6438 -48.1455 -48.1453 -48.1370 -48.1367
   -48.1309 -48.1306 -48.1278 -48.1276 -48.1234 -48.1232 -25.5155 -25.5154
   -25.4533 -25.4531 -25.4309 -25.4309 -13.6240 -13.6237 -13.3496 -13.3494
    -5.6878  -5.6878  -5.6420  -5.6419  -5.6200  -5.6199  -5.3021  -5.3021
    -5.2049  -5.2049  -5.0279  -5.0278  -4.9981  -4.9981  -4.9681  -4.9681
    -4.2084  -4.2083  -3.8571  -3.8569  -3.3619  -3.3617  -2.9688  -2.9686
    -2.5715  -2.5714   1.2829   1.2830   2.5015   2.5017   2.6915   2.6919
     3.5699   3.5702

          k = 0.2496 0.0000 0.0000 (133491 PWs)   bands (ev):

  -168.9406-168.9403-168.5896-168.5896-168.5700-168.5699-168.3918-168.3917
  -168.3543-168.3542 -51.6447 -51.6429 -48.1451 -48.1446 -48.1370 -48.1367
   -48.1309 -48.1305 -48.1278 -48.1276 -48.1233 -48.1231 -25.4940 -25.4914
   -25.4889 -25.4534 -25.4498 -25.4388 -13.8929 -13.4845 -13.4009 -13.3889
    -5.6769  -5.6661  -5.6269  -5.6229  -5.6191  -5.5939  -5.2503  -5.1982
    -5.0931  -5.0646  -5.0481  -5.0206  -4.9835  -4.9707  -4.5226  -4.3827
    -4.3467  -4.0786  -3.9092  -3.8710  -3.3588  -3.2168  -3.0256  -2.7447
    -2.5778  -2.4319   0.7051   1.3167   1.6804   2.3703   2.4558   2.6177
     2.6449   2.9620

          k = 0.2496 0.1247 0.0000 (133477 PWs)   bands (ev):

  -168.9406-168.9403-168.5896-168.5896-168.5700-168.5699-168.3918-168.3917
  -168.3543-168.3542 -51.6445 -51.6430 -48.1452 -48.1448 -48.1370 -48.1367
   -48.1309 -48.1305 -48.1278 -48.1276 -48.1233 -48.1231 -25.5042 -25.4966
   -25.4845 -25.4553 -25.4450 -25.4359 -13.8183 -13.4601 -13.3920 -13.3853
    -5.6806  -5.6711  -5.6300  -5.6205  -5.6197  -5.5844  -5.2483  -5.2062
    -5.0967  -5.0640  -5.0553  -5.0211  -4.9832  -4.9725  -4.8350  -4.4214
    -4.4184  -3.9422  -3.8921  -3.8258  -3.6067  -3.2230  -3.1449  -3.0778
    -2.5401  -2.3948   0.8779   1.2047   1.7579   2.3178   2.5786   2.6669
     3.1315   3.4747

          k = 0.2496 0.2494 0.0000 (133591 PWs)   bands (ev):

  -168.9406-168.9403-168.5897-168.5896-168.5700-168.5699-168.3918-168.3917
  -168.3543-168.3542 -51.6441 -51.6431 -48.1454 -48.1451 -48.1370 -48.1367
   -48.1309 -48.1306 -48.1278 -48.1276 -48.1233 -48.1231 -25.5150 -25.5100
   -25.4768 -25.4605 -25.4374 -25.4321 -13.6440 -13.4437 -13.3756 -13.3624
    -5.6944  -5.6897  -5.6307  -5.6214  -5.6159  -5.5617  -5.3531  -5.2492
    -5.1763  -5.0740  -5.0591  -5.0241  -4.9948  -4.9824  -4.9758  -4.7111
    -4.3947  -4.0106  -3.9505  -3.9247  -3.7312  -3.6112  -3.0896  -3.0758
    -2.7103  -2.5470   1.4732   1.6408   2.0603   2.1335   2.6807   2.7186
     3.5026   3.5754

          k = 0.2496-0.3741 0.0000 (133622 PWs)   bands (ev):

  -168.9406-168.9403-168.5897-168.5896-168.5700-168.5699-168.3918-168.3917
  -168.3543-168.3542 -51.6436 -51.6434 -48.1455 -48.1453 -48.1370 -48.1367
   -48.1309 -48.1306 -48.1278 -48.1276 -48.1233 -48.1231 -25.5178 -25.5177
   -25.4683 -25.4682 -25.4324 -25.4324 -13.4931 -13.4929 -13.3605 -13.3603
    -5.7094  -5.7094  -5.6254  -5.6253  -5.5978  -5.5977  -5.3237  -5.3237
    -5.1608  -5.1607  -5.0361  -5.0360  -4.9854  -4.9854  -4.9772  -4.9772
    -4.2696  -4.2695  -3.9427  -3.9425  -3.7001  -3.7001  -3.0282  -3.0280
    -2.7745  -2.7744   1.8544   1.8544   2.4261   2.4264   2.6048   2.6049
     3.6753   3.6757

          k = 0.3745 0.0000 0.0000 (133456 PWs)   bands (ev):

  -168.9406-168.9403-168.5896-168.5896-168.5700-168.5699-168.3918-168.3917
  -168.3543-168.3542 -51.6439 -51.6429 -48.1451 -48.1447 -48.1370 -48.1368
   -48.1309 -48.1306 -48.1277 -48.1275 -48.1233 -48.1231 -25.5185 -25.5120
   -25.4800 -25.4575 -25.4487 -25.4370 -13.7058 -13.5123 -13.3721 -13.3444
    -5.6828  -5.6780  -5.6157  -5.6096  -5.6078  -5.5975  -5.2471  -5.1829
    -5.1003  -5.0726  -5.0540  -5.0333  -4.9783  -4.9711  -4.6556  -4.5493
    -4.4282  -4.2858  -4.0396  -3.7270  -3.4622  -3.1820  -2.9294  -2.8937
    -2.8007  -2.6478   0.6233   0.8757   2.3382   2.4219   2.5257   2.7564
     3.0045   3.2315

          k = 0.3745 0.1247 0.0000 (133503 PWs)   bands (ev):

  -168.9406-168.9403-168.5896-168.5896-168.5700-168.5699-168.3918-168.3917
  -168.3543-168.3542 -51.6438 -51.6429 -48.1452 -48.1449 -48.1370 -48.1367
   -48.1309 -48.1306 -48.1277 -48.1275 -48.1233 -48.1231 -25.5230 -25.5178
   -25.4779 -25.4548 -25.4494 -25.4360 -13.6372 -13.4724 -13.3706 -13.3389
    -5.6890  -5.6849  -5.6180  -5.6080  -5.6070  -5.5905  -5.2485  -5.1851
    -5.1174  -5.0709  -5.0617  -5.0349  -4.9783  -4.9723  -4.8552  -4.6600
    -4.4081  -4.2554  -4.1534  -3.6653  -3.5993  -3.4391  -3.1674  -2.9490
    -2.6120  -2.6088   0.7178   0.8454   2.3499   2.4441   2.6002   3.0065
     3.4820   3.7281

          k = 0.3745 0.2494 0.0000 (133500 PWs)   bands (ev):

[...]
    -2.7163  -2.6965  -2.6670  -2.3424  -2.1497  -2.1115  -2.0240  -1.8894
    -1.8844  -1.6836   0.7652   1.2863   1.5180   2.0676   2.2744   2.3143
     2.5225   3.1291

          k = 0.0000 0.2479 0.0000 (133594 PWs)   bands (ev):

  -165.3739-165.2658-165.2559-165.1634-165.1587-165.1325-165.1276-165.0435
  -164.9704-164.9415 -50.7258 -50.6353 -48.2882 -48.2793 -48.2791 -48.2705
   -48.2674 -48.2509 -48.2430 -48.2412 -48.2348 -48.2316 -24.9940 -24.9354
   -24.9182 -24.9153 -24.8678 -24.7858 -13.8262 -13.6510 -13.4282 -13.2693
    -5.3174  -4.6874  -4.2660  -3.8179  -3.7635  -3.6807  -3.6583  -3.6254
    -3.5530  -3.3106  -3.2764  -3.0301  -2.9854  -2.9710  -2.8633  -2.8392
    -2.8176  -2.6961  -2.6162  -2.4787  -2.1267  -2.1111  -2.0241  -2.0127
    -2.0107  -1.6721   0.9354   1.1562   1.9149   2.1595   2.2661   2.5621
     2.9518   3.0084

          k = 0.0000-0.3718 0.0000 (133686 PWs)   bands (ev):

  -165.3740-165.2658-165.2559-165.1635-165.1587-165.1325-165.1276-165.0435
  -164.9704-164.9415 -50.7257 -50.6352 -48.2883 -48.2792 -48.2791 -48.2705
   -48.2674 -48.2510 -48.2430 -48.2412 -48.2348 -48.2316 -24.9958 -24.9364
   -24.9191 -24.9180 -24.8661 -24.7859 -13.7458 -13.6632 -13.3711 -13.3168
    -5.1223  -5.0876  -4.1103  -4.0790  -3.7674  -3.7085  -3.6973  -3.6869
    -3.5611  -3.3233  -3.2916  -3.0224  -3.0097  -2.9979  -2.8453  -2.8210
    -2.7851  -2.6746  -2.6033  -2.5640  -2.1123  -2.1058  -2.0588  -2.0315
    -2.0251  -1.6760   0.9813   1.0394   2.2321   2.2322   2.5223   2.5277
     2.9701   2.9928

          k = 0.1185 0.0000 0.0000 (133541 PWs)   bands (ev):

  -165.3739-165.2658-165.2559-165.1634-165.1587-165.1325-165.1276-165.0434
  -164.9704-164.9415 -50.7258 -50.6353 -48.2880 -48.2793 -48.2791 -48.2705
   -48.2674 -48.2506 -48.2430 -48.2413 -48.2347 -48.2316 -24.9868 -24.9308
   -24.9274 -24.9015 -24.8730 -24.7935 -13.9654 -13.6275 -13.4797 -13.2710
    -4.8192  -4.6479  -4.3722  -3.9943  -3.8149  -3.7082  -3.3916  -3.3622
    -3.3462  -3.3188  -3.2052  -3.1572  -2.9930  -2.9275  -2.8623  -2.8563
    -2.7943  -2.7081  -2.4804  -2.4361  -2.1600  -2.1037  -2.0437  -1.8939
    -1.7381  -1.7102   1.0167   1.1538   1.6995   2.1763   2.2125   2.3737
     2.6061   2.7033

          k = 0.1185 0.1239 0.0000 (133548 PWs)   bands (ev):

  -165.3739-165.2658-165.2559-165.1634-165.1587-165.1325-165.1276-165.0435
  -164.9704-164.9415 -50.7258 -50.6353 -48.2880 -48.2793 -48.2791 -48.2705
   -48.2674 -48.2507 -48.2430 -48.2413 -48.2347 -48.2316 -24.9882 -24.9330
   -24.9267 -24.9059 -24.8706 -24.7934 -13.9065 -13.6254 -13.4694 -13.2645
    -5.0971  -4.4613  -4.4093  -3.9668  -3.8102  -3.6906  -3.5536  -3.4379
    -3.3692  -3.3129  -3.2117  -3.0880  -2.9855  -2.9349  -2.9214  -2.8467
    -2.7882  -2.7418  -2.6471  -2.4320  -2.1520  -2.1040  -2.0302  -1.9860
    -1.8455  -1.6990   1.1266   1.3447   1.6476   1.8874   2.2790   2.5042
     2.6168   2.8882

          k = 0.1185 0.2479 0.0000 (133640 PWs)   bands (ev):

  -165.3739-165.2658-165.2559-165.1634-165.1587-165.1325-165.1276-165.0435
  -164.9704-164.9415 -50.7257 -50.6352 -48.2882 -48.2793 -48.2791 -48.2705
   -48.2674 -48.2509 -48.2430 -48.2412 -48.2347 -48.2316 -24.9912 -24.9352
   -24.9288 -24.9118 -24.8671 -24.7932 -13.7793 -13.6233 -13.4313 -13.2743
    -5.2732  -4.6630  -4.2974  -3.9327  -3.8982  -3.8248  -3.6541  -3.5882
    -3.4814  -3.3115  -3.2751  -3.0422  -3.0162  -2.9511  -2.8906  -2.8519
    -2.8385  -2.7661  -2.5968  -2.5768  -2.1289  -2.1060  -2.0548  -2.0239
    -1.9938  -1.6931   1.2386   1.4891   1.8416   1.9547   2.2746   2.4704
     3.1545   3.2883

          k = 0.1185-0.3718 0.0000 (133646 PWs)   bands (ev):

  -165.3739-165.2658-165.2559-165.1634-165.1587-165.1326-165.1276-165.0435
  -164.9704-164.9415 -50.7256 -50.6351 -48.2883 -48.2792 -48.2791 -48.2705
   -48.2674 -48.2510 -48.2430 -48.2412 -48.2347 -48.2316 -24.9929 -24.9348
   -24.9321 -24.9133 -24.8659 -24.7931 -13.7098 -13.6261 -13.3729 -13.3196
    -5.1049  -5.0729  -4.1714  -4.1470  -3.9181  -3.8497  -3.6805  -3.6195
    -3.4743  -3.3048  -3.2913  -3.0528  -3.0193  -2.9769  -2.8740  -2.8415
    -2.8000  -2.7453  -2.6824  -2.5954  -2.1094  -2.0960  -2.0712  -2.0647
    -2.0216  -1.7032   1.2813   1.3399   2.2122   2.2145   2.3532   2.3541
     3.2359   3.2487

          k = 0.2371 0.0000 0.0000 (133491 PWs)   bands (ev):

  -165.3738-165.2658-165.2559-165.1634-165.1587-165.1325-165.1276-165.0434
  -164.9704-164.9414 -50.7256 -50.6351 -48.2880 -48.2793 -48.2792 -48.2704
   -48.2674 -48.2506 -48.2430 -48.2413 -48.2347 -48.2316 -24.9815 -24.9473
   -24.9263 -24.9038 -24.8680 -24.8123 -13.8214 -13.5863 -13.4790 -13.3057
    -4.6171  -4.4708  -4.3533  -4.2280  -4.1258  -4.0274  -3.3921  -3.3887
    -3.3480  -3.2988  -3.1944  -3.1645  -3.0376  -2.9916  -2.9048  -2.8856
    -2.7702  -2.6717  -2.6596  -2.6299  -2.1824  -2.0806  -2.0550  -1.9594
    -1.9013  -1.7670   1.1419   1.7017   1.8144   2.2192   2.2414   2.5321
     2.7280   2.7454

          k = 0.2371 0.1239 0.0000 (133477 PWs)   bands (ev):

  -165.3738-165.2658-165.2559-165.1634-165.1587-165.1325-165.1276-165.0434
  -164.9704-164.9414 -50.7256 -50.6351 -48.2881 -48.2793 -48.2792 -48.2704
   -48.2674 -48.2507 -48.2430 -48.2413 -48.2347 -48.2316 -24.9823 -24.9491
   -24.9267 -24.9072 -24.8669 -24.8117 -13.7671 -13.5800 -13.4711 -13.2924
    -4.9397  -4.4462  -4.4143  -4.1590  -4.0675  -3.9221  -3.6580  -3.4117
    -3.3625  -3.2818  -3.2321  -3.1247  -3.0947  -2.9870  -2.9507  -2.8895
    -2.8259  -2.7465  -2.5999  -2.5407  -2.1789  -2.0853  -2.0445  -2.0119
    -1.8777  -1.7573   1.1582   1.5224   1.7919   2.1139   2.2829   2.4575
     2.9132   3.1521

          k = 0.2371 0.2479 0.0000 (133591 PWs)   bands (ev):

  -165.3739-165.2658-165.2559-165.1634-165.1587-165.1325-165.1276-165.0435
  -164.9704-164.9414 -50.7255 -50.6350 -48.2882 -48.2793 -48.2792 -48.2704
   -48.2674 -48.2509 -48.2430 -48.2412 -48.2347 -48.2316 -24.9843 -24.9519
   -24.9292 -24.9117 -24.8656 -24.8106 -13.6637 -13.5588 -13.4361 -13.2854
    -5.2317  -4.7647  -4.3398  -4.1401  -4.0436  -3.9865  -3.7706  -3.5706
    -3.3593  -3.3006  -3.2612  -3.1231  -3.0579  -2.9663  -2.9538  -2.8921
    -2.8365  -2.7773  -2.6569  -2.5742  -2.1671  -2.0930  -2.0698  -2.0357
    -1.9806  -1.7620   1.4104   1.7223   1.9241   2.0644   2.3463   2.4156
     3.2205   3.3264

          k = 0.2371-0.3718 0.0000 (133622 PWs)   bands (ev):

  -165.3739-165.2658-165.2559-165.1634-165.1587-165.1326-165.1276-165.0435
  -164.9704-164.9415 -50.7254 -50.6349 -48.2883 -48.2792 -48.2792 -48.2704
   -48.2674 -48.2510 -48.2430 -48.2412 -48.2347 -48.2316 -24.9855 -24.9530
   -24.9315 -24.9128 -24.8652 -24.8101 -13.6273 -13.5399 -13.3707 -13.3210
    -5.1748  -5.1509  -4.2000  -4.1745  -4.1295  -4.0335  -3.7133  -3.6773
    -3.3569  -3.3089  -3.1793  -3.1604  -3.0317  -2.9685  -2.9310  -2.8911
    -2.8380  -2.8080  -2.7257  -2.6268  -2.1520  -2.1027  -2.0808  -2.0756
    -2.0175  -1.7774   1.6387   1.6717   2.2607   2.2631   2.3300   2.3652
     3.4139   3.4363

          k = 0.3556 0.0000 0.0000 (133456 PWs)   bands (ev):

  -165.3738-165.2658-165.2559-165.1634-165.1587-165.1325-165.1275-165.0434
  -164.9704-164.9413 -50.7254 -50.6349 -48.2880 -48.2793 -48.2792 -48.2703
   -48.2674 -48.2507 -48.2430 -48.2413 -48.2346 -48.2316 -24.9764 -24.9666
   -24.9203 -24.9077 -24.8633 -24.8308 -13.6398 -13.5590 -13.4717 -13.3658
    -4.7071  -4.6024  -4.4101  -4.2579  -4.1896  -3.8679  -3.5120  -3.5035
    -3.3221  -3.2452  -3.2045  -3.1768  -3.1277  -2.9994  -2.9770  -2.9179
    -2.8025  -2.7371  -2.7097  -2.6681  -2.2176  -2.0618  -2.0529  -1.9968
    -1.9666  -1.8330   1.1919   1.4691   2.1018   2.2620   2.3488   2.5850
     3.0148   3.2796

          k = 0.3556 0.1239 0.0000 (133503 PWs)   bands (ev):

  -165.3738-165.2658-165.2559-165.1634-165.1587-165.1325-165.1276-165.0434
  -164.9704-164.9413 -50.7254 -50.6349 -48.2881 -48.2793 -48.2792 -48.2703
   -48.2674 -48.2508 -48.2430 -48.2413 -48.2346 -48.2316 -24.9765 -24.9683
   -24.9214 -24.9106 -24.8634 -24.8295 -13.5977 -13.5451 -13.4662 -13.3412
    -4.9488  -4.7362  -4.3881  -4.2627  -4.2058  -3.7790  -3.7497  -3.4651
    -3.3574  -3.2646  -3.2254  -3.1859  -3.1363  -3.0019  -2.9824  -2.9170
    -2.8286  -2.7055  -2.6219  -2.6063  -2.2168  -2.0670  -2.0540  -2.0083
    -1.9059  -1.8271   1.0691   1.2020   2.0414   2.3063   2.3484   2.6286
     3.3728   3.4065

          k = 0.3556 0.2479 0.0000 (133500 PWs)   bands (ev):

  -165.3738-165.2658-165.2559-165.1634-165.1587-165.1325-165.1275-165.0435
  -164.9704-164.9413 -50.7253 -50.6348 -48.2883 -48.2793 -48.2792 -48.2703
   -48.2674 -48.2509 -48.2430 -48.2412 -48.2346 -48.2316 -24.9778 -24.9705
   -24.9260 -24.9137 -24.8638 -24.8273 -13.5658 -13.4812 -13.4256 -13.3009
    -5.3133  -5.1035  -4.3383  -4.2597  -4.1396  -3.9139  -3.6884  -3.5123
    -3.4041  -3.2917  -3.2422  -3.1658  -3.1346  -2.9993  -2.9731  -2.9150
    -2.8329  -2.7637  -2.6458  -2.6307  -2.2151  -2.0853  -2.0636  -2.0339
    -1.9754  -1.8334   1.2656   1.5071   1.9293   2.3126   2.4986   2.6937
     3.4968   3.5964

          k = 0.3556-0.3718 0.0000 (133486 PWs)   bands (ev):

  -165.3738-165.2658-165.2559-165.1634-165.1587-165.1325-165.1275-165.0435
  -164.9704-164.9413 -50.7252 -50.6347 -48.2884 -48.2792 -48.2792 -48.2703
   -48.2674 -48.2510 -48.2430 -48.2412 -48.2346 -48.2316 -24.9792 -24.9708
   -24.9292 -24.9141 -24.8641 -24.8264 -13.5609 -13.4703 -13.3491 -13.3025
    -5.3945  -5.3725  -4.3223  -4.2564  -4.0238  -3.9547  -3.6749  -3.6401
    -3.3704  -3.2912  -3.1973  -3.1695  -3.0560  -3.0067  -2.9528  -2.9274
    -2.8881  -2.8338  -2.7351  -2.6785  -2.2140  -2.0975  -2.0755  -2.0653
    -2.0231  -1.8408   1.6489   1.6553   2.1524   2.1530   2.6712   2.7397
     3.6609   3.6909

          k =-0.4741 0.0000 0.0000 (133468 PWs)   bands (ev):

  -165.3738-165.2658-165.2559-165.1634-165.1587-165.1325-165.1275-165.0434
  -164.9704-164.9413 -50.7253 -50.6348 -48.2880 -48.2793 -48.2792 -48.2703
   -48.2674 -48.2507 -48.2430 -48.2413 -48.2346 -48.2316 -24.9745 -24.9743
   -24.9154 -24.9117 -24.8615 -24.8383 -13.5532 -13.4977 -13.4769 -13.4425
    -4.8486  -4.7814  -4.3125  -4.3107  -3.8787  -3.7881  -3.6987  -3.6045
    -3.2965  -3.2369  -3.2321  -3.1650  -3.1626  -3.0375  -2.9859  -2.9265
    -2.8136  -2.7610  -2.7300  -2.6490  -2.2306  -2.0636  -2.0359  -2.0266
    -1.9660  -1.8560   1.2657   1.2826   2.1511   2.1565   2.4687   2.5586
     3.2182   3.2747

          k =-0.4741 0.1239 0.0000 (133546 PWs)   bands (ev):

  -165.3738-165.2658-165.2559-165.1634-165.1587-165.1326-165.1276-165.0435
  -164.9704-164.9414 -50.7253 -50.6348 -48.2881 -48.2793 -48.2792 -48.2703
   -48.2674 -48.2508 -48.2430 -48.2413 -48.2346 -48.2316 -24.9764 -24.9738
   -24.9161 -24.9154 -24.8619 -24.8368 -13.5492 -13.4623 -13.4584 -13.4123
    -4.9946  -4.9491  -4.3271  -4.3084  -4.0092  -3.9615  -3.6387  -3.5641
    -3.3245  -3.2719  -3.2232  -3.1676  -3.1552  -3.0300  -2.9840  -2.9258
    -2.8277  -2.6813  -2.6475  -2.6288  -2.2300  -2.0648  -2.0528  -2.0025
    -1.9140  -1.8530   1.0487   1.0690   2.1250   2.1271   2.5098   2.5992
     3.6130   3.6506

          k =-0.4741 0.2479 0.0000 (133474 PWs)   bands (ev):

  -165.3738-165.2658-165.2559-165.1634-165.1587-165.1325-165.1275-165.0434
  -164.9704-164.9414 -50.7252 -50.6347 -48.2883 -48.2793 -48.2792 -48.2703
   -48.2674 -48.2509 -48.2430 -48.2412 -48.2346 -48.2316 -24.9804 -24.9727
   -24.9246 -24.9151 -24.8628 -24.8341 -13.5440 -13.4541 -13.3743 -13.3284
    -5.3385  -5.3131  -4.3698  -4.3180  -3.9794  -3.9206  -3.5945  -3.5641
    -3.3983  -3.3013  -3.2853  -3.1574  -3.1466  -3.0201  -2.9757  -2.9242
    -2.8313  -2.7145  -2.7112  -2.6386  -2.2292  -2.0860  -2.0518  -2.0339
    -1.9792  -1.8569   1.3015   1.3110   2.0581   2.0648   2.6416   2.7245
     3.6277   3.6535

          k =-0.4741-0.3718 0.0000 (133528 PWs)   bands (ev):

  -165.3738-165.2658-165.2559-165.1634-165.1587-165.1325-165.1276-165.0435
  -164.9704-164.9414 -50.7251 -50.6346 -48.2884 -48.2792 -48.2792 -48.2703
   -48.2674 -48.2510 -48.2430 -48.2412 -48.2346 -48.2316 -24.9825 -24.9720
   -24.9287 -24.9149 -24.8633 -24.8329 -13.5418 -13.4516 -13.3305 -13.2835
    -5.5108  -5.4876  -4.3813  -4.3203  -3.9136  -3.8150  -3.5974  -3.5679
    -3.4553  -3.3267  -3.2827  -3.1733  -3.0523  -3.0097  -2.9641  -2.9281
    -2.9202  -2.8312  -2.7897  -2.6611  -2.2289  -2.0964  -2.0744  -2.0509
    -2.0380  -1.8597   1.7048   1.7115   1.9523   1.9679   2.8022   2.8748
     3.7325   3.7511

     the Fermi energy is    -2.2355 ev

!    total energy              =   -2806.73984488 Ry
     estimated scf accuracy    <          9.9E-09 Ry
     smearing contrib. (-TS)   =      -0.00001726 Ry
     internal energy E=F+TS    =   -2806.73982762 Ry

     The total energy is F=E-TS. E is the sum of the following terms:
     one-electron contribution =  -11471.09340878 Ry
     hartree contribution      =    5689.54259265 Ry
     xc contribution           =    -250.46790713 Ry
     ewald contribution        =    3225.27889564 Ry

     total magnetization       =     5.96 Bohr mag/cell
     absolute magnetization    =     6.20 Bohr mag/cell

     convergence has been achieved in  11 iterations

     negative rho (up, down):  1.919E-04 1.433E-04

     Forces acting on atoms (cartesian axes, Ry/au):

     atom    1 type  1   force =     0.00000000    0.00000000    0.00252412
     atom    2 type  1   force =     0.00000000    0.00000000   -0.00269016
     atom    3 type  3   force =     0.00000000    0.00000000    0.00031354
     atom    4 type  3   force =     0.00000000    0.00000000   -0.00021535
     atom    5 type  2   force =     0.00000000    0.00000000    0.00103518
     atom    6 type  2   force =     0.00000000    0.00000000   -0.00096733

     Total force =     0.003970     Total SCF correction =     0.001276
     SCF correction compared to forces is large: reduce conv_thr to get better values


     Computing stress (Cartesian axis) and pressure


     negative rho (up, down):  1.919E-04 1.433E-04
          total   stress  (Ry/bohr**3)                   (kbar)     P=       -0.40
   0.00000036   0.00000000   0.00000000            0.05        0.00        0.00
   0.00000000   0.00000025   0.00000000            0.00        0.04        0.00
   0.00000000   0.00000000  -0.00000884            0.00        0.00       -1.30

     Energy error            =      1.1E-06 Ry
     Gradient error          =      2.7E-03 Ry/Bohr
     Cell gradient error     =      5.3E-02 kbar

     number of scf cycles    =  86
     number of bfgs steps    =  52

     enthalpy           old  =   -2806.7398459649 Ry
     enthalpy           new  =   -2806.7398448844 Ry

     CASE: enthalpy          _new > enthalpy          _old

     new trust radius        =       0.0000747241 bohr

     trust_radius < trust_radius_min

     resetting bfgs history

     new conv_thr            =       0.0000000100 Ry

     new unit-cell volume =   4352.63418 a.u.^3 (   644.99384 Ang^3 )
     density =      1.92121 g/cm^3

CELL_PARAMETERS (alat=  7.90396849)
   1.054585729   0.000000000   0.000000000
   0.000000000   1.344645067   0.000000000
   0.000000000   0.000000000   6.216229140

ATOMIC_POSITIONS (angstrom)
Er            2.2054551346        2.8120562277        4.5603852235
Er            0.0000000000        0.0000000000        1.9955754884
I             2.2054551346        0.0000000000       -0.1177210340
I             0.0000000000        2.8120562277        6.6756373980
Se            0.0000000000        2.8120562277        2.6303104113
Se            2.2054551346        0.0000000000        3.9124125129



     Writing output data file ./tmp/ErSeI_vc-relax_monolayer_155.save/
     NEW-OLD atomic charge density approx. for the potential

     negative rho (up, down):  2.143E-04 2.087E-04
     extrapolated charge  110.00185, renormalised to  110.00000
     Generating pointlists ...

     total cpu time spent up to now is    46625.0 secs

     Self-consistent Calculation

     iteration #  1     ecut=   155.00 Ry     beta= 0.10
     Davidson diagonalization with overlap
     ethr =  1.00E-06,  avg # of iterations =  5.3

     negative rho (up, down):  3.444E-04 3.363E-04

     total cpu time spent up to now is    46647.2 secs

     total energy              =   -2806.73967669 Ry
     estimated scf accuracy    <       0.00020421 Ry

     total magnetization       =     5.96 Bohr mag/cell
     absolute magnetization    =     6.21 Bohr mag/cell

     iteration #  2     ecut=   155.00 Ry     beta= 0.10
     Davidson diagonalization with overlap
     ethr =  1.86E-07,  avg # of iterations =  2.0

     negative rho (up, down):  3.231E-04 3.128E-04

     total cpu time spent up to now is    46661.2 secs

     total energy              =   -2806.73971115 Ry
     estimated scf accuracy    <       0.00097946 Ry

     total magnetization       =     5.93 Bohr mag/cell
     absolute magnetization    =     6.17 Bohr mag/cell

     iteration #  3     ecut=   155.00 Ry     beta= 0.10
     Davidson diagonalization with overlap
     ethr =  1.86E-07,  avg # of iterations =  1.0

     negative rho (up, down):  3.049E-04 2.923E-04

     total cpu time spent up to now is    46673.8 secs

     total energy              =   -2806.73974297 Ry
     estimated scf accuracy    <       0.00012205 Ry

     total magnetization       =     5.96 Bohr mag/cell
     absolute magnetization    =     6.20 Bohr mag/cell

     iteration #  4     ecut=   155.00 Ry     beta= 0.10
     Davidson diagonalization with overlap
     ethr =  1.11E-07,  avg # of iterations =  1.0

     negative rho (up, down):  2.886E-04 2.710E-04

     total cpu time spent up to now is    46686.6 secs

     total energy              =   -2806.73976092 Ry
     estimated scf accuracy    <       0.00005775 Ry

     total magnetization       =     5.95 Bohr mag/cell
     absolute magnetization    =     6.20 Bohr mag/cell

     iteration #  5     ecut=   155.00 Ry     beta= 0.10
     Davidson diagonalization with overlap
     ethr =  5.25E-08,  avg # of iterations =  1.0

     negative rho (up, down):  2.923E-04 2.611E-04

     total cpu time spent up to now is    46699.1 secs

     total energy              =   -2806.73978595 Ry
     estimated scf accuracy    <       0.00003070 Ry

     total magnetization       =     5.96 Bohr mag/cell
     absolute magnetization    =     6.20 Bohr mag/cell

     iteration #  6     ecut=   155.00 Ry     beta= 0.10
     Davidson diagonalization with overlap
     ethr =  2.79E-08,  avg # of iterations =  1.1

     negative rho (up, down):  2.809E-04 2.472E-04

     total cpu time spent up to now is    46711.9 secs

     total energy              =   -2806.73979135 Ry
     estimated scf accuracy    <       0.00003972 Ry

     total magnetization       =     5.96 Bohr mag/cell
     absolute magnetization    =     6.21 Bohr mag/cell

     iteration #  7     ecut=   155.00 Ry     beta= 0.10
     Davidson diagonalization with overlap
     ethr =  2.79E-08,  avg # of iterations =  1.0

     negative rho (up, down):  2.690E-04 2.336E-04

     total cpu time spent up to now is    46724.5 secs

     total energy              =   -2806.73979951 Ry
     estimated scf accuracy    <       0.00000300 Ry

     total magnetization       =     5.96 Bohr mag/cell
     absolute magnetization    =     6.20 Bohr mag/cell

     iteration #  8     ecut=   155.00 Ry     beta= 0.10
     Davidson diagonalization with overlap
     ethr =  2.72E-09,  avg # of iterations =  2.0

     negative rho (up, down):  2.586E-04 2.217E-04

     total cpu time spent up to now is    46738.7 secs

     total energy              =   -2806.73980390 Ry
     estimated scf accuracy    <       0.00001038 Ry

     total magnetization       =     5.95 Bohr mag/cell
     absolute magnetization    =     6.20 Bohr mag/cell

     iteration #  9     ecut=   155.00 Ry     beta= 0.10
     Davidson diagonalization with overlap
