
     Program PWSCF v.6.8 starts on 27Feb2023 at 17: 2:25 

     This program is part of the open-source Quantum ESPRESSO suite
     for quantum simulation of materials; please cite
         "P. Giannozzi et al., J. Phys.:Condens. Matter 21 395502 (2009);
         "P. Giannozzi et al., J. Phys.:Condens. Matter 29 465901 (2017);
         "P. Giannozzi et al., J. Chem. Phys. 152 154105 (2020);
          URL http://www.quantum-espresso.org", 
     in publications or presentations arising from this work. More details at
     http://www.quantum-espresso.org/quote

     Parallel version (MPI & OpenMP), running on      80 processor cores
     Number of MPI processes:                80
     Threads/MPI process:                     1

     MPI processes distributed on     2 nodes
     K-points division:     npool     =       2
     R & G space division:  proc/nbgrp/npool/nimage =      40
     178244 MiB available memory on the printing compute node when the environment starts
 
     Reading input from nii2.vcrelax2.in

     Current dimensions of program PWSCF are:
     Max number of different atomic species (ntypx) = 10
     Max number of k-points (npk) =  40000
     Max angular momentum in pseudopotentials (lmaxx) =  4

     File ./tmp/monoclinic.update deleted, as requested

     File ./tmp/monoclinic.bfgs deleted, as requested

     --------------------------------------------
     DFT-D3 Dispersion Correction (3-body terms):
     --------------------------------------------
       Reference C6 values for interpolation: 

         atom   Coordination number   C6
         Ni         0.000          1149.49
         Ni         1.794           356.66
         Ni         6.546           257.56
         Ni         6.292           283.75
         I          0.000           703.93
         I          0.997           717.00

       Values used:

         atom   Coordination number  R0_AB[au]  C6      C8
         Ni         4.415            3.162    283.28  23737.21
         Ni         4.415            3.162    283.28  23737.21
         I          3.908            3.532    717.00  65856.01
         I          3.908            3.532    717.00  65856.01
         I          3.908            3.532    717.00  65856.01
         I          3.909            3.532    717.00  65856.01

         Molecular C6 ( Ry / a.u.^6 ) =     19739.16


     Subspace diagonalization in iterative solution of the eigenvalue problem:
     one sub-group per band group will be used
     scalapack distributed-memory algorithm (size of sub-group:  6*  6 procs)

 
     Parallelization info
     --------------------
     sticks:   dense  smooth     PW     G-vecs:    dense   smooth      PW
     Min          90      87     24                 6543     6154     886
     Max          91      88     25                 6550     6161     891
     Sum        3629    3481    963               261879   246361   35565
 
     Using Slab Decomposition
 


     bravais-lattice index     =          -12
     lattice parameter (alat)  =      12.4448  a.u.
     unit-cell volume          =    1387.2222 (a.u.)^3
     number of atoms/cell      =            6
     number of atomic types    =            2
     number of electrons       =        64.00
     number of Kohn-Sham states=           38
     kinetic-energy cutoff     =     120.0000  Ry
     charge density cutoff     =     500.0000  Ry
     scf convergence threshold =      1.0E-06
     mixing beta               =       0.4000
     number of iterations used =            8  plain     mixing
     energy convergence thresh.=      1.0E-04
     force convergence thresh. =      1.0E-03
     press convergence thresh. =      5.0E-01
     Exchange-correlation= PBE
                           (   1   4   3   4   0   0   0)
     nstep                     =           50


     celldm(1)=  12.444780  celldm(2)=   0.588231  celldm(3)=   1.223857
     celldm(4)=   0.000000  celldm(5)=   0.020820  celldm(6)=   0.000000

     crystal axes: (cart. coord. in units of alat)
               a(1) = (   1.000000   0.000000   0.000000 )  
               a(2) = (   0.000000   0.588231   0.000000 )  
               a(3) = (   0.025481   0.000000   1.223591 )  

     reciprocal axes: (cart. coord. in units 2 pi/alat)
               b(1) = (  1.000000  0.000000 -0.020825 )  
               b(2) = (  0.000000  1.700012  0.000000 )  
               b(3) = (  0.000000  0.000000  0.817266 )  


     PseudoPot. # 1 for Ni read from file:
     /ptmp/jojaibal/andrey/nii2-magnons/pseudo/Ni.upf
     MD5 check sum: 14a7e289c5fff9cacaba393040e62f02
     Pseudo is Norm-conserving + core correction, Zval = 18.0
     Generated using ONCVPSP code by D. R. Hamann
     Using radial grid of 1372 points,  6 beta functions with: 
                l(1) =   0
                l(2) =   0
                l(3) =   1
                l(4) =   1
                l(5) =   2
                l(6) =   2

     PseudoPot. # 2 for I  read from file:
     /ptmp/jojaibal/andrey/nii2-magnons/pseudo/I.upf
     MD5 check sum: 301f7009ca0a2b18b0adf53dca02d42f
     Pseudo is Norm-conserving + core correction, Zval =  7.0
     Generated using ONCVPSP code by D. R. Hamann
     Using radial grid of 1210 points,  6 beta functions with: 
                l(1) =   0
                l(2) =   0
                l(3) =   1
                l(4) =   1
                l(5) =   2
                l(6) =   2

     atomic species   valence    mass     pseudopotential
        Ni            18.00    58.69340     Ni( 1.00)
        I              7.00   126.90447     I ( 1.00)

     Starting magnetic structure 
     atomic species   magnetization
        Ni           0.278
        I            0.100

      2 Sym. Ops. (no inversion) found



   Cartesian axes

     site n.     atom                  positions (alat units)
         1           Ni  tau(   1) = (   0.5061582   0.0000000   0.2961057  )
         2           Ni  tau(   2) = (   0.0061713   0.2941155   0.2961065  )
         3           I   tau(   3) = (   0.2475465   0.0000000   0.5499487  )
         4           I   tau(   4) = (   0.7475474   0.2941155   0.5499530  )
         5           I   tau(   5) = (   0.7647872   0.0000000   0.0422695  )
         6           I   tau(   6) = (   0.2647874   0.2941155   0.0422711  )

     number of k points=    80  Marzari-Vanderbilt smearing, width (Ry)=  0.0015
                       cart. coord. in units 2pi/alat
        k(    1) = (   0.0000000   0.0000000   0.0000000), wk =   0.0046296
        k(    2) = (   0.0000000   0.0000000   0.1362111), wk =   0.0092593
        k(    3) = (   0.0000000   0.0000000   0.2724221), wk =   0.0092593
        k(    4) = (   0.0000000   0.0000000  -0.4086332), wk =   0.0046296
        k(    5) = (   0.0000000   0.2833354   0.0000000), wk =   0.0092593
        k(    6) = (   0.0000000   0.2833354   0.1362111), wk =   0.0185185
        k(    7) = (   0.0000000   0.2833354   0.2724221), wk =   0.0185185
        k(    8) = (   0.0000000   0.2833354  -0.4086332), wk =   0.0092593
        k(    9) = (   0.0000000   0.5666707   0.0000000), wk =   0.0092593
        k(   10) = (   0.0000000   0.5666707   0.1362111), wk =   0.0185185
        k(   11) = (   0.0000000   0.5666707   0.2724221), wk =   0.0185185
        k(   12) = (   0.0000000   0.5666707  -0.4086332), wk =   0.0092593
        k(   13) = (   0.0000000  -0.8500061   0.0000000), wk =   0.0046296
        k(   14) = (   0.0000000  -0.8500061   0.1362111), wk =   0.0092593
        k(   15) = (   0.0000000  -0.8500061   0.2724221), wk =   0.0092593
        k(   16) = (   0.0000000  -0.8500061  -0.4086332), wk =   0.0046296
        k(   17) = (   0.1666667   0.0000000  -0.0034708), wk =   0.0092593
        k(   18) = (   0.1666667   0.0000000   0.1327403), wk =   0.0092593
        k(   19) = (   0.1666667   0.0000000   0.2689514), wk =   0.0092593
        k(   20) = (   0.1666667   0.0000000  -0.4121039), wk =   0.0092593
        k(   21) = (   0.1666667   0.0000000  -0.2758929), wk =   0.0092593
        k(   22) = (   0.1666667   0.0000000  -0.1396818), wk =   0.0092593
        k(   23) = (   0.1666667   0.2833354  -0.0034708), wk =   0.0185185
        k(   24) = (   0.1666667   0.2833354   0.1327403), wk =   0.0185185
        k(   25) = (   0.1666667   0.2833354   0.2689514), wk =   0.0185185
        k(   26) = (   0.1666667   0.2833354  -0.4121039), wk =   0.0185185
        k(   27) = (   0.1666667   0.2833354  -0.2758929), wk =   0.0185185
        k(   28) = (   0.1666667   0.2833354  -0.1396818), wk =   0.0185185
        k(   29) = (   0.1666667   0.5666707  -0.0034708), wk =   0.0185185
        k(   30) = (   0.1666667   0.5666707   0.1327403), wk =   0.0185185
        k(   31) = (   0.1666667   0.5666707   0.2689514), wk =   0.0185185
        k(   32) = (   0.1666667   0.5666707  -0.4121039), wk =   0.0185185
        k(   33) = (   0.1666667   0.5666707  -0.2758929), wk =   0.0185185
        k(   34) = (   0.1666667   0.5666707  -0.1396818), wk =   0.0185185
        k(   35) = (   0.1666667  -0.8500061  -0.0034708), wk =   0.0092593
        k(   36) = (   0.1666667  -0.8500061   0.1327403), wk =   0.0092593
        k(   37) = (   0.1666667  -0.8500061   0.2689514), wk =   0.0092593
        k(   38) = (   0.1666667  -0.8500061  -0.4121039), wk =   0.0092593
        k(   39) = (   0.1666667  -0.8500061  -0.2758929), wk =   0.0092593
        k(   40) = (   0.1666667  -0.8500061  -0.1396818), wk =   0.0092593
        k(   41) = (   0.3333333   0.0000000  -0.0069415), wk =   0.0092593
        k(   42) = (   0.3333333   0.0000000   0.1292696), wk =   0.0092593
        k(   43) = (   0.3333333   0.0000000   0.2654806), wk =   0.0092593
        k(   44) = (   0.3333333   0.0000000  -0.4155747), wk =   0.0092593
        k(   45) = (   0.3333333   0.0000000  -0.2793636), wk =   0.0092593
        k(   46) = (   0.3333333   0.0000000  -0.1431526), wk =   0.0092593
        k(   47) = (   0.3333333   0.2833354  -0.0069415), wk =   0.0185185
        k(   48) = (   0.3333333   0.2833354   0.1292696), wk =   0.0185185
        k(   49) = (   0.3333333   0.2833354   0.2654806), wk =   0.0185185
        k(   50) = (   0.3333333   0.2833354  -0.4155747), wk =   0.0185185
        k(   51) = (   0.3333333   0.2833354  -0.2793636), wk =   0.0185185
        k(   52) = (   0.3333333   0.2833354  -0.1431526), wk =   0.0185185
        k(   53) = (   0.3333333   0.5666707  -0.0069415), wk =   0.0185185
        k(   54) = (   0.3333333   0.5666707   0.1292696), wk =   0.0185185
        k(   55) = (   0.3333333   0.5666707   0.2654806), wk =   0.0185185
        k(   56) = (   0.3333333   0.5666707  -0.4155747), wk =   0.0185185
        k(   57) = (   0.3333333   0.5666707  -0.2793636), wk =   0.0185185
        k(   58) = (   0.3333333   0.5666707  -0.1431526), wk =   0.0185185
        k(   59) = (   0.3333333  -0.8500061  -0.0069415), wk =   0.0092593
        k(   60) = (   0.3333333  -0.8500061   0.1292696), wk =   0.0092593
        k(   61) = (   0.3333333  -0.8500061   0.2654806), wk =   0.0092593
        k(   62) = (   0.3333333  -0.8500061  -0.4155747), wk =   0.0092593
        k(   63) = (   0.3333333  -0.8500061  -0.2793636), wk =   0.0092593
        k(   64) = (   0.3333333  -0.8500061  -0.1431526), wk =   0.0092593
        k(   65) = (  -0.5000000   0.0000000   0.0104123), wk =   0.0046296
        k(   66) = (  -0.5000000   0.0000000   0.1466233), wk =   0.0092593
        k(   67) = (  -0.5000000   0.0000000   0.2828344), wk =   0.0092593
        k(   68) = (  -0.5000000   0.0000000  -0.3982209), wk =   0.0046296
        k(   69) = (  -0.5000000   0.2833354   0.0104123), wk =   0.0092593
        k(   70) = (  -0.5000000   0.2833354   0.1466233), wk =   0.0185185
        k(   71) = (  -0.5000000   0.2833354   0.2828344), wk =   0.0185185
        k(   72) = (  -0.5000000   0.2833354  -0.3982209), wk =   0.0092593
        k(   73) = (  -0.5000000   0.5666707   0.0104123), wk =   0.0092593
        k(   74) = (  -0.5000000   0.5666707   0.1466233), wk =   0.0185185
        k(   75) = (  -0.5000000   0.5666707   0.2828344), wk =   0.0185185
        k(   76) = (  -0.5000000   0.5666707  -0.3982209), wk =   0.0092593
        k(   77) = (  -0.5000000  -0.8500061   0.0104123), wk =   0.0046296
        k(   78) = (  -0.5000000  -0.8500061   0.1466233), wk =   0.0092593
        k(   79) = (  -0.5000000  -0.8500061   0.2828344), wk =   0.0092593
        k(   80) = (  -0.5000000  -0.8500061  -0.3982209), wk =   0.0046296

     Dense  grid:   261879 G-vectors     FFT dimensions: (  90,  54, 120)

     Smooth grid:   246361 G-vectors     FFT dimensions: (  90,  54, 108)

     Estimated max dynamical RAM per process >      52.89 MB

     Estimated total dynamical RAM >       4.01 GB
     Generating pointlists ...
     new r_m :   0.1495 (alat units)  1.8602 (a.u.) for type    1
     new r_m :   0.1495 (alat units)  1.8602 (a.u.) for type    2

     Initial potential from superposition of free atoms

     starting charge   63.99922, renormalised to   64.00000
     Starting wfcs are   36 randomized atomic wfcs +    2 random wfcs

     total cpu time spent up to now is        9.0 secs

     Self-consistent Calculation

     iteration #  1     ecut=   120.00 Ry     beta= 0.40
     Davidson diagonalization with overlap
     ethr =  1.00E-02,  avg # of iterations =  4.5

     total cpu time spent up to now is       18.8 secs

     total energy              =    -774.17083083 Ry
     estimated scf accuracy    <       1.73760245 Ry

     total magnetization       =     3.94 Bohr mag/cell
     absolute magnetization    =     4.05 Bohr mag/cell

     iteration #  2     ecut=   120.00 Ry     beta= 0.40
     Davidson diagonalization with overlap
     ethr =  2.72E-03,  avg # of iterations =  2.0

     total cpu time spent up to now is       26.5 secs

     total energy              =    -774.20462474 Ry
     estimated scf accuracy    <       2.29495190 Ry

     total magnetization       =     4.01 Bohr mag/cell
     absolute magnetization    =     4.37 Bohr mag/cell

     iteration #  3     ecut=   120.00 Ry     beta= 0.40
     Davidson diagonalization with overlap
     ethr =  2.72E-03,  avg # of iterations =  2.0

     total cpu time spent up to now is       33.8 secs

     total energy              =    -774.63446511 Ry
     estimated scf accuracy    <       0.39195746 Ry

     total magnetization       =     3.94 Bohr mag/cell
     absolute magnetization    =     4.06 Bohr mag/cell

     iteration #  4     ecut=   120.00 Ry     beta= 0.40
     Davidson diagonalization with overlap
     ethr =  6.12E-04,  avg # of iterations =  1.9

     total cpu time spent up to now is       40.9 secs

     total energy              =    -774.64742186 Ry
     estimated scf accuracy    <       0.05074019 Ry

     total magnetization       =     3.45 Bohr mag/cell
     absolute magnetization    =     3.59 Bohr mag/cell

     iteration #  5     ecut=   120.00 Ry     beta= 0.40
     Davidson diagonalization with overlap
     ethr =  7.93E-05,  avg # of iterations =  4.9

     total cpu time spent up to now is       51.3 secs

     total energy              =    -774.64812999 Ry
     estimated scf accuracy    <       0.18138716 Ry

     total magnetization       =     3.39 Bohr mag/cell
     absolute magnetization    =     3.51 Bohr mag/cell

     iteration #  6     ecut=   120.00 Ry     beta= 0.40
     Davidson diagonalization with overlap
     ethr =  7.93E-05,  avg # of iterations =  1.5

     total cpu time spent up to now is       58.0 secs

     total energy              =    -774.65379934 Ry
     estimated scf accuracy    <       0.00177371 Ry

     total magnetization       =     3.50 Bohr mag/cell
     absolute magnetization    =     3.61 Bohr mag/cell

     iteration #  7     ecut=   120.00 Ry     beta= 0.40
     Davidson diagonalization with overlap
     c_bands:  1 eigenvalues not converged
     ethr =  2.77E-06,  avg # of iterations =  7.3

     total cpu time spent up to now is       71.0 secs

     total energy              =    -774.65405793 Ry
     estimated scf accuracy    <       0.00104702 Ry

     total magnetization       =     3.49 Bohr mag/cell
     absolute magnetization    =     3.60 Bohr mag/cell

     iteration #  8     ecut=   120.00 Ry     beta= 0.40
     Davidson diagonalization with overlap
     ethr =  1.64E-06,  avg # of iterations =  1.8

     total cpu time spent up to now is       78.7 secs

     total energy              =    -774.65426918 Ry
     estimated scf accuracy    <       0.00102608 Ry

     total magnetization       =     3.51 Bohr mag/cell
     absolute magnetization    =     3.60 Bohr mag/cell

     iteration #  9     ecut=   120.00 Ry     beta= 0.40
     Davidson diagonalization with overlap
     ethr =  1.60E-06,  avg # of iterations =  1.0

     total cpu time spent up to now is       84.8 secs

     total energy              =    -774.65428339 Ry
     estimated scf accuracy    <       0.00020424 Ry

     total magnetization       =     3.51 Bohr mag/cell
     absolute magnetization    =     3.60 Bohr mag/cell

     iteration # 10     ecut=   120.00 Ry     beta= 0.40
     Davidson diagonalization with overlap
     ethr =  3.19E-07,  avg # of iterations =  1.6

     total cpu time spent up to now is       91.8 secs

     total energy              =    -774.65431079 Ry
     estimated scf accuracy    <       0.00001238 Ry

     total magnetization       =     3.50 Bohr mag/cell
     absolute magnetization    =     3.59 Bohr mag/cell

     iteration # 11     ecut=   120.00 Ry     beta= 0.40
     Davidson diagonalization with overlap
     ethr =  1.93E-08,  avg # of iterations =  2.5

     total cpu time spent up to now is      100.1 secs

     total energy              =    -774.65431290 Ry
     estimated scf accuracy    <       0.00000920 Ry

     total magnetization       =     3.50 Bohr mag/cell
     absolute magnetization    =     3.59 Bohr mag/cell

     iteration # 12     ecut=   120.00 Ry     beta= 0.40
     Davidson diagonalization with overlap
     ethr =  1.44E-08,  avg # of iterations =  1.1
 
     Magnetic moment per site  (integrated on atomic sphere of radius R)
     atom   1 (R=0.149)  charge= 16.3648  magn=  1.1358
     atom   2 (R=0.149)  charge= 16.3637  magn=  1.1370
     atom   3 (R=0.149)  charge=  3.0465  magn=  0.1355
     atom   4 (R=0.149)  charge=  3.0466  magn=  0.1355
     atom   5 (R=0.149)  charge=  3.0468  magn=  0.1354
     atom   6 (R=0.149)  charge=  3.0469  magn=  0.1354

     total cpu time spent up to now is      106.0 secs

     End of self-consistent calculation

     Number of k-points >= 100: set verbosity='high' to print the bands.

     the Fermi energy is     4.7037 ev

!    total energy              =    -774.65431367 Ry
     estimated scf accuracy    <       0.00000073 Ry
     smearing contrib. (-TS)   =      -0.00004431 Ry
     internal energy E=F+TS    =    -774.65426936 Ry

     The total energy is F=E-TS. E is the sum of the following terms:
     one-electron contribution =    -882.41457965 Ry
     hartree contribution      =     458.94238685 Ry
     xc contribution           =    -117.63843390 Ry
     ewald contribution        =    -233.46107046 Ry
     DFT-D3 Dispersion         =      -0.08257219 Ry

     total magnetization       =     3.50 Bohr mag/cell
     absolute magnetization    =     3.59 Bohr mag/cell

     convergence has been achieved in  12 iterations

     Forces acting on atoms (cartesian axes, Ry/au):

     atom    1 type  1   force =     0.00003129    0.00000000    0.00005149
     atom    2 type  1   force =    -0.00002095    0.00000000    0.00009762
     atom    3 type  2   force =    -0.04831512    0.00000000    0.02144375
     atom    4 type  2   force =    -0.04830135    0.00000000    0.02145944
     atom    5 type  2   force =     0.04829218    0.00000000   -0.02150168
     atom    6 type  2   force =     0.04831394    0.00000000   -0.02155061

     Total force =     0.105740     Total SCF correction =     0.002453


     Computing stress (Cartesian axis) and pressure

          total   stress  (Ry/bohr**3)                   (kbar)     P=       28.32
   0.00038449   0.00000000  -0.00043971           56.56        0.00      -64.68
   0.00000000   0.00005324   0.00000000            0.00        7.83        0.00
  -0.00043971   0.00000000   0.00013978          -64.68        0.00       20.56


     BFGS Geometry Optimization
     Energy error            =      0.0E+00 Ry
     Gradient error          =      4.8E-02 Ry/Bohr
     Cell gradient error     =      6.5E+01 kbar

     number of scf cycles    =   1
     number of bfgs steps    =   0

     enthalpy           new  =    -774.6543136733 Ry

     new trust radius        =       0.1087760440 bohr
ibrav =    -12
 celldm(1) =     12.56514713
 celldm(2) =      0.58337157
 celldm(3) =      1.21588833
 celldm(5) =     -0.00088877
Input lattice vectors:
     1.00961222     0.00000000    -0.01099278
     0.00000000     0.58901398     0.00000000
     0.01227495     0.00000000     1.22758711
New lattice vectors in INITIAL alat:
     1.00967207     0.00000000     0.00000000
     0.00000000     0.58901398     0.00000000
    -0.00109109     0.00000000     1.22764800
New lattice vectors in NEW alat (for information only):
     1.00000000     0.00000000     0.00000000
     0.00000000     0.58337157     0.00000000
    -0.00108064     0.00000000     1.21588785
Discrepancy in bohr =     0.010993    0.000000    0.013366
     new conv_thr            =       0.0000010000 Ry

     new unit-cell volume =   1407.15363 a.u.^3 (   208.51865 Ang^3 )
     density =      4.97723 g/cm^3

CELL_PARAMETERS (alat= 12.44478037)
   1.009672067   0.000000000   0.000000000
   0.000000000   0.589013982   0.000000000
  -0.001091095   0.000000000   1.227647997

ATOMIC_POSITIONS (crystal)
Ni            0.4999943704        0.0000000000        0.2420006093
Ni            0.0000032012        0.5000000000        0.2420042922
I             0.2321758166        0.0000000000        0.4508628327
I             0.7321776892        0.5000000000        0.4508673623
I             0.7678234544        0.0000000000        0.0331334305
I             0.2678254681        0.5000000000        0.0331314729



     Writing output data file ./tmp/monoclinic.save/
     NEW-OLD atomic charge density approx. for the potential
     extrapolated charge   64.90651, renormalised to   64.00000
     Generating pointlists ...

     total cpu time spent up to now is      119.5 secs

     Self-consistent Calculation

     iteration #  1     ecut=   120.00 Ry     beta= 0.40
     Davidson diagonalization with overlap
     c_bands:  2 eigenvalues not converged
     c_bands:  1 eigenvalues not converged
     c_bands:  2 eigenvalues not converged
     c_bands:  1 eigenvalues not converged
     c_bands:  2 eigenvalues not converged
     c_bands:  1 eigenvalues not converged
     c_bands:  1 eigenvalues not converged
     c_bands:  1 eigenvalues not converged
     c_bands:  2 eigenvalues not converged
     ethr =  1.00E-06,  avg # of iterations = 13.6

     total cpu time spent up to now is      145.7 secs

     total energy              =    -771.72489065 Ry
     estimated scf accuracy    <       3.96185721 Ry

     total magnetization       =     4.09 Bohr mag/cell
     absolute magnetization    =     4.22 Bohr mag/cell

     iteration #  2     ecut=   120.00 Ry     beta= 0.40
     Davidson diagonalization with overlap
     ethr =  6.19E-03,  avg # of iterations =  3.0

     total cpu time spent up to now is      155.2 secs

     total energy              =    -774.69268082 Ry
     estimated scf accuracy    <      16.12176449 Ry

     total magnetization       =     0.59 Bohr mag/cell
     absolute magnetization    =     0.68 Bohr mag/cell

     iteration #  3     ecut=   120.00 Ry     beta= 0.40
     Davidson diagonalization with overlap
     ethr =  6.19E-03,  avg # of iterations =  2.0

     total cpu time spent up to now is      162.3 secs

     total energy              =    -774.95010632 Ry
     estimated scf accuracy    <       4.84719764 Ry

     total magnetization       =     1.10 Bohr mag/cell
     absolute magnetization    =     1.20 Bohr mag/cell

     iteration #  4     ecut=   120.00 Ry     beta= 0.40
     Davidson diagonalization with overlap
     ethr =  6.19E-03,  avg # of iterations =  1.0

     total cpu time spent up to now is      168.0 secs

     total energy              =    -774.76049268 Ry
     estimated scf accuracy    <       3.02814773 Ry

     total magnetization       =     1.19 Bohr mag/cell
     absolute magnetization    =     1.29 Bohr mag/cell

     iteration #  5     ecut=   120.00 Ry     beta= 0.40
     Davidson diagonalization with overlap
     ethr =  4.73E-03,  avg # of iterations =  1.0

     total cpu time spent up to now is      173.8 secs

     total energy              =    -774.69569985 Ry
     estimated scf accuracy    <       1.41641442 Ry

     total magnetization       =     1.67 Bohr mag/cell
     absolute magnetization    =     1.76 Bohr mag/cell

     iteration #  6     ecut=   120.00 Ry     beta= 0.40
     Davidson diagonalization with overlap
     ethr =  2.21E-03,  avg # of iterations =  1.0

     total cpu time spent up to now is      179.5 secs

     total energy              =    -774.69515688 Ry
     estimated scf accuracy    <       0.56695501 Ry

     total magnetization       =     2.42 Bohr mag/cell
     absolute magnetization    =     2.49 Bohr mag/cell

     iteration #  7     ecut=   120.00 Ry     beta= 0.40
     Davidson diagonalization with overlap
     ethr =  8.86E-04,  avg # of iterations =  1.0

     total cpu time spent up to now is      185.3 secs

     total energy              =    -774.67568772 Ry
     estimated scf accuracy    <       0.35894138 Ry

     total magnetization       =     2.88 Bohr mag/cell
     absolute magnetization    =     2.94 Bohr mag/cell

     iteration #  8     ecut=   120.00 Ry     beta= 0.40
     Davidson diagonalization with overlap
     ethr =  5.61E-04,  avg # of iterations =  1.0

     total cpu time spent up to now is      191.0 secs

     total energy              =    -774.68338745 Ry
     estimated scf accuracy    <       0.10100080 Ry

     total magnetization       =     3.18 Bohr mag/cell
     absolute magnetization    =     3.24 Bohr mag/cell

     iteration #  9     ecut=   120.00 Ry     beta= 0.40
     Davidson diagonalization with overlap
     ethr =  1.58E-04,  avg # of iterations =  1.6

     total cpu time spent up to now is      197.2 secs

     total energy              =    -774.68600145 Ry
     estimated scf accuracy    <       0.08926278 Ry

     total magnetization       =     3.23 Bohr mag/cell
     absolute magnetization    =     3.29 Bohr mag/cell

     iteration # 10     ecut=   120.00 Ry     beta= 0.40
     Davidson diagonalization with overlap
     ethr =  1.39E-04,  avg # of iterations =  1.0

     total cpu time spent up to now is      203.0 secs

     total energy              =    -774.67975007 Ry
     estimated scf accuracy    <       0.10207534 Ry

     total magnetization       =     3.23 Bohr mag/cell
     absolute magnetization    =     3.29 Bohr mag/cell

     iteration # 11     ecut=   120.00 Ry     beta= 0.40
     Davidson diagonalization with overlap
     ethr =  1.39E-04,  avg # of iterations =  1.1

     total cpu time spent up to now is      208.9 secs

     total energy              =    -774.67394430 Ry
     estimated scf accuracy    <       0.05161149 Ry

     total magnetization       =     3.52 Bohr mag/cell
     absolute magnetization    =     3.61 Bohr mag/cell

     iteration # 12     ecut=   120.00 Ry     beta= 0.40
     Davidson diagonalization with overlap
     ethr =  8.06E-05,  avg # of iterations =  2.2

     total cpu time spent up to now is      215.6 secs

     total energy              =    -774.67912488 Ry
     estimated scf accuracy    <       0.00713048 Ry

     total magnetization       =     3.94 Bohr mag/cell
     absolute magnetization    =     4.03 Bohr mag/cell

     iteration # 13     ecut=   120.00 Ry     beta= 0.40
     Davidson diagonalization with overlap
     ethr =  1.11E-05,  avg # of iterations =  5.9

     total cpu time spent up to now is      225.0 secs

     total energy              =    -774.67944302 Ry
     estimated scf accuracy    <       0.00393195 Ry

     total magnetization       =     3.90 Bohr mag/cell
     absolute magnetization    =     4.00 Bohr mag/cell

     iteration # 14     ecut=   120.00 Ry     beta= 0.40
     Davidson diagonalization with overlap
     ethr =  6.14E-06,  avg # of iterations =  1.4

     total cpu time spent up to now is      231.1 secs

     total energy              =    -774.67924868 Ry
     estimated scf accuracy    <       0.00399674 Ry

     total magnetization       =     3.90 Bohr mag/cell
     absolute magnetization    =     4.00 Bohr mag/cell

     iteration # 15     ecut=   120.00 Ry     beta= 0.40
     Davidson diagonalization with overlap
     ethr =  6.14E-06,  avg # of iterations =  1.7

     total cpu time spent up to now is      237.8 secs

     total energy              =    -774.67965815 Ry
     estimated scf accuracy    <       0.00046170 Ry

     total magnetization       =     3.77 Bohr mag/cell
     absolute magnetization    =     3.87 Bohr mag/cell

     iteration # 16     ecut=   120.00 Ry     beta= 0.40
     Davidson diagonalization with overlap
     ethr =  7.21E-07,  avg # of iterations =  2.5

     total cpu time spent up to now is      245.0 secs

     total energy              =    -774.67965980 Ry
     estimated scf accuracy    <       0.00084689 Ry

     total magnetization       =     3.76 Bohr mag/cell
     absolute magnetization    =     3.87 Bohr mag/cell

     iteration # 17     ecut=   120.00 Ry     beta= 0.40
     Davidson diagonalization with overlap
     ethr =  7.21E-07,  avg # of iterations =  1.0

     total cpu time spent up to now is      250.7 secs

     total energy              =    -774.67957597 Ry
     estimated scf accuracy    <       0.00070186 Ry

     total magnetization       =     3.77 Bohr mag/cell
     absolute magnetization    =     3.87 Bohr mag/cell

     iteration # 18     ecut=   120.00 Ry     beta= 0.40
     Davidson diagonalization with overlap
     ethr =  7.21E-07,  avg # of iterations =  1.3

     total cpu time spent up to now is      256.8 secs

     total energy              =    -774.67962100 Ry
     estimated scf accuracy    <       0.00010580 Ry

     total magnetization       =     3.81 Bohr mag/cell
     absolute magnetization    =     3.91 Bohr mag/cell

     iteration # 19     ecut=   120.00 Ry     beta= 0.40
     Davidson diagonalization with overlap
     ethr =  1.65E-07,  avg # of iterations =  1.0

     total cpu time spent up to now is      262.5 secs

     total energy              =    -774.67962080 Ry
     estimated scf accuracy    <       0.00001797 Ry

     total magnetization       =     3.81 Bohr mag/cell
     absolute magnetization    =     3.91 Bohr mag/cell

     iteration # 20     ecut=   120.00 Ry     beta= 0.40
     Davidson diagonalization with overlap
     ethr =  2.81E-08,  avg # of iterations =  2.0

     total cpu time spent up to now is      270.0 secs

     total energy              =    -774.67962309 Ry
     estimated scf accuracy    <       0.00001531 Ry

     total magnetization       =     3.82 Bohr mag/cell
     absolute magnetization    =     3.92 Bohr mag/cell

     iteration # 21     ecut=   120.00 Ry     beta= 0.40
     Davidson diagonalization with overlap
     ethr =  2.39E-08,  avg # of iterations =  1.0

     total cpu time spent up to now is      275.7 secs

     total energy              =    -774.67962412 Ry
     estimated scf accuracy    <       0.00000114 Ry

     total magnetization       =     3.81 Bohr mag/cell
     absolute magnetization    =     3.91 Bohr mag/cell

     iteration # 22     ecut=   120.00 Ry     beta= 0.40
     Davidson diagonalization with overlap
     ethr =  1.79E-09,  avg # of iterations =  2.0
 
     Magnetic moment per site  (integrated on atomic sphere of radius R)
     atom   1 (R=0.149)  charge= 16.3093  magn=  1.2321
     atom   2 (R=0.149)  charge= 16.3094  magn=  1.2319
     atom   3 (R=0.149)  charge=  3.0405  magn=  0.1501
     atom   4 (R=0.149)  charge=  3.0406  magn=  0.1501
     atom   5 (R=0.149)  charge=  3.0408  magn=  0.1500
     atom   6 (R=0.149)  charge=  3.0408  magn=  0.1500

     total cpu time spent up to now is      282.5 secs

     End of self-consistent calculation

     Number of k-points >= 100: set verbosity='high' to print the bands.

     the Fermi energy is     4.5433 ev

!    total energy              =    -774.67962422 Ry
     estimated scf accuracy    <       0.00000029 Ry
     smearing contrib. (-TS)   =      -0.00005629 Ry
     internal energy E=F+TS    =    -774.67956793 Ry

     The total energy is F=E-TS. E is the sum of the following terms:
     one-electron contribution =    -877.32503126 Ry
     hartree contribution      =     455.95762927 Ry
     xc contribution           =    -117.56444181 Ry
     ewald contribution        =    -235.66590120 Ry
     DFT-D3 Dispersion         =      -0.08182292 Ry

     total magnetization       =     3.81 Bohr mag/cell
     absolute magnetization    =     3.91 Bohr mag/cell

     convergence has been achieved in  22 iterations

     Forces acting on atoms (cartesian axes, Ry/au):

     atom    1 type  1   force =     0.00002285    0.00000000    0.00001808
     atom    2 type  1   force =     0.00001505    0.00000000    0.00000332
     atom    3 type  2   force =    -0.03609985    0.00000000    0.00296261
     atom    4 type  2   force =    -0.03609670    0.00000000    0.00295667
     atom    5 type  2   force =     0.03607859    0.00000000   -0.00297214
     atom    6 type  2   force =     0.03608005    0.00000000   -0.00296855

     Total force =     0.072421     Total SCF correction =     0.001680


     Computing stress (Cartesian axis) and pressure

          total   stress  (Ry/bohr**3)                   (kbar)     P=       12.45
   0.00023991   0.00000000  -0.00032690           35.29        0.00      -48.09
   0.00000000   0.00004311   0.00000000            0.00        6.34        0.00
  -0.00032690   0.00000000  -0.00002910          -48.09        0.00       -4.28

     Energy error            =      2.5E-02 Ry
     Gradient error          =      3.6E-02 Ry/Bohr
     Cell gradient error     =      4.8E+01 kbar

     number of scf cycles    =   2
     number of bfgs steps    =   1

     enthalpy           old  =    -774.6543136733 Ry
     enthalpy           new  =    -774.6796242236 Ry

     CASE: enthalpy          _new < enthalpy          _old

     new trust radius        =       0.1952723681 bohr
ibrav =    -12
 celldm(1) =     12.68315335
 celldm(2) =      0.57891645
 celldm(3) =      1.20417083
 celldm(5) =     -0.02627612
Input lattice vectors:
     1.01915384     0.00000000    -0.00111715
     0.00000000     0.59000527     0.00000000
    -0.03090222     0.00000000     1.22684694
New lattice vectors in INITIAL alat:
     1.01915445     0.00000000     0.00000000
     0.00000000     0.59000527     0.00000000
    -0.03224701     0.00000000     1.22681233
New lattice vectors in NEW alat (for information only):
     1.00000000     0.00000000     0.00000000
     0.00000000     0.57891645     0.00000000
    -0.03164094     0.00000000     1.20375506
Discrepancy in bohr =     0.001117    0.000000    0.001345
     new conv_thr            =       0.0000003610 Ry

     new unit-cell volume =   1421.79094 a.u.^3 (   210.68768 Ang^3 )
     density =      4.92599 g/cm^3

CELL_PARAMETERS (alat= 12.44478037)
   1.019154454   0.000000000   0.000000000
   0.000000000   0.590005274   0.000000000
  -0.032247008   0.000000000   1.226812332

ATOMIC_POSITIONS (crystal)
Ni            0.4999972192        0.0000000000        0.2420027092
Ni            0.0000045512        0.5000000000        0.2420055736
I             0.2275912141        0.0000000000        0.4514196247
I             0.7275936175        0.5000000000        0.4514237832
I             0.7724054714        0.0000000000        0.0325752294
I             0.2724079265        0.5000000000        0.0325730799



     Writing output data file ./tmp/monoclinic.save/
     NEW-OLD atomic charge density approx. for the potential
     extrapolated charge   64.65887, renormalised to   64.00000
     Generating pointlists ...

     total cpu time spent up to now is      295.9 secs

     Self-consistent Calculation

     iteration #  1     ecut=   120.00 Ry     beta= 0.40
     Davidson diagonalization with overlap
     c_bands:  1 eigenvalues not converged
     c_bands:  1 eigenvalues not converged
     c_bands:  2 eigenvalues not converged
     c_bands:  1 eigenvalues not converged
     c_bands:  2 eigenvalues not converged
     c_bands:  1 eigenvalues not converged
     c_bands:  1 eigenvalues not converged
     ethr =  1.00E-06,  avg # of iterations = 12.8

     total cpu time spent up to now is      320.7 secs

     total energy              =    -773.43558700 Ry
     estimated scf accuracy    <       1.70049943 Ry

     total magnetization       =     4.00 Bohr mag/cell
     absolute magnetization    =     4.14 Bohr mag/cell

     iteration #  2     ecut=   120.00 Ry     beta= 0.40
     Davidson diagonalization with overlap
     ethr =  2.66E-03,  avg # of iterations =  3.0

     total cpu time spent up to now is      330.1 secs

     total energy              =    -774.59143571 Ry
     estimated scf accuracy    <       9.98513886 Ry

     total magnetization       =     0.89 Bohr mag/cell
     absolute magnetization    =     1.01 Bohr mag/cell

     iteration #  3     ecut=   120.00 Ry     beta= 0.40
     Davidson diagonalization with overlap
     ethr =  2.66E-03,  avg # of iterations =  2.0

     total cpu time spent up to now is      337.7 secs

     total energy              =    -774.87064480 Ry
     estimated scf accuracy    <       2.62968523 Ry

     total magnetization       =     1.65 Bohr mag/cell
     absolute magnetization    =     1.77 Bohr mag/cell

     iteration #  4     ecut=   120.00 Ry     beta= 0.40
     Davidson diagonalization with overlap
     ethr =  2.66E-03,  avg # of iterations =  1.0

     total cpu time spent up to now is      343.4 secs

     total energy              =    -774.72986213 Ry
     estimated scf accuracy    <       2.04622469 Ry

     total magnetization       =     1.98 Bohr mag/cell
     absolute magnetization    =     2.10 Bohr mag/cell

     iteration #  5     ecut=   120.00 Ry     beta= 0.40
     Davidson diagonalization with overlap
     ethr =  2.66E-03,  avg # of iterations =  1.0

     total cpu time spent up to now is      349.2 secs

     total energy              =    -774.70249075 Ry
     estimated scf accuracy    <       0.76692758 Ry

     total magnetization       =     2.80 Bohr mag/cell
     absolute magnetization    =     2.90 Bohr mag/cell

     iteration #  6     ecut=   120.00 Ry     beta= 0.40
     Davidson diagonalization with overlap
     ethr =  1.20E-03,  avg # of iterations =  1.0

     total cpu time spent up to now is      355.0 secs

     total energy              =    -774.69680067 Ry
     estimated scf accuracy    <       0.24086456 Ry

     total magnetization       =     3.44 Bohr mag/cell
     absolute magnetization    =     3.53 Bohr mag/cell

     iteration #  7     ecut=   120.00 Ry     beta= 0.40
     Davidson diagonalization with overlap
     ethr =  3.76E-04,  avg # of iterations =  1.0

     total cpu time spent up to now is      360.7 secs

     total energy              =    -774.70013401 Ry
     estimated scf accuracy    <       0.06617244 Ry

     total magnetization       =     3.69 Bohr mag/cell
     absolute magnetization    =     3.78 Bohr mag/cell

     iteration #  8     ecut=   120.00 Ry     beta= 0.40
     Davidson diagonalization with overlap
     ethr =  1.03E-04,  avg # of iterations =  1.6

     total cpu time spent up to now is      367.0 secs

     total energy              =    -774.70087607 Ry
     estimated scf accuracy    <       0.03755558 Ry

     total magnetization       =     3.72 Bohr mag/cell
     absolute magnetization    =     3.82 Bohr mag/cell

     iteration #  9     ecut=   120.00 Ry     beta= 0.40
     Davidson diagonalization with overlap
     ethr =  5.87E-05,  avg # of iterations =  1.4

     total cpu time spent up to now is      373.1 secs

     total energy              =    -774.70179451 Ry
     estimated scf accuracy    <       0.03078590 Ry

     total magnetization       =     3.73 Bohr mag/cell
     absolute magnetization    =     3.82 Bohr mag/cell

     iteration # 10     ecut=   120.00 Ry     beta= 0.40
     Davidson diagonalization with overlap
     ethr =  4.81E-05,  avg # of iterations =  1.3

     total cpu time spent up to now is      379.1 secs

     total energy              =    -774.69774641 Ry
     estimated scf accuracy    <       0.04082980 Ry

     total magnetization       =     3.70 Bohr mag/cell
     absolute magnetization    =     3.80 Bohr mag/cell

     iteration # 11     ecut=   120.00 Ry     beta= 0.40
     Davidson diagonalization with overlap
     ethr =  4.81E-05,  avg # of iterations =  1.9

     total cpu time spent up to now is      385.6 secs

     total energy              =    -774.69953095 Ry
     estimated scf accuracy    <       0.00401004 Ry

     total magnetization       =     3.95 Bohr mag/cell
     absolute magnetization    =     4.05 Bohr mag/cell

     iteration # 12     ecut=   120.00 Ry     beta= 0.40
     Davidson diagonalization with overlap
     ethr =  6.27E-06,  avg # of iterations =  5.5

     total cpu time spent up to now is      394.5 secs

     total energy              =    -774.69897484 Ry
     estimated scf accuracy    <       0.00413045 Ry

     total magnetization       =     3.95 Bohr mag/cell
     absolute magnetization    =     4.05 Bohr mag/cell

     iteration # 13     ecut=   120.00 Ry     beta= 0.40
     Davidson diagonalization with overlap
     ethr =  6.27E-06,  avg # of iterations =  1.7

     total cpu time spent up to now is      400.9 secs

     total energy              =    -774.69924955 Ry
     estimated scf accuracy    <       0.00024978 Ry

     total magnetization       =     3.94 Bohr mag/cell
     absolute magnetization    =     4.06 Bohr mag/cell

     iteration # 14     ecut=   120.00 Ry     beta= 0.40
     Davidson diagonalization with overlap
     ethr =  3.90E-07,  avg # of iterations =  2.3

     total cpu time spent up to now is      407.9 secs

     total energy              =    -774.69927499 Ry
     estimated scf accuracy    <       0.00013297 Ry

     total magnetization       =     3.94 Bohr mag/cell
     absolute magnetization    =     4.06 Bohr mag/cell

     iteration # 15     ecut=   120.00 Ry     beta= 0.40
     Davidson diagonalization with overlap
     ethr =  2.08E-07,  avg # of iterations =  1.0

     total cpu time spent up to now is      413.7 secs

     total energy              =    -774.69928016 Ry
     estimated scf accuracy    <       0.00014295 Ry

     total magnetization       =     3.94 Bohr mag/cell
     absolute magnetization    =     4.06 Bohr mag/cell

     iteration # 16     ecut=   120.00 Ry     beta= 0.40
     Davidson diagonalization with overlap
     ethr =  2.08E-07,  avg # of iterations =  1.0

     total cpu time spent up to now is      419.4 secs

     total energy              =    -774.69927040 Ry
     estimated scf accuracy    <       0.00013397 Ry

     total magnetization       =     3.94 Bohr mag/cell
     absolute magnetization    =     4.06 Bohr mag/cell

     iteration # 17     ecut=   120.00 Ry     beta= 0.40
     Davidson diagonalization with overlap
     ethr =  2.08E-07,  avg # of iterations =  1.1

     total cpu time spent up to now is      425.3 secs

     total energy              =    -774.69926191 Ry
     estimated scf accuracy    <       0.00010671 Ry

     total magnetization       =     3.94 Bohr mag/cell
     absolute magnetization    =     4.06 Bohr mag/cell

     iteration # 18     ecut=   120.00 Ry     beta= 0.40
     Davidson diagonalization with overlap
     ethr =  1.67E-07,  avg # of iterations =  1.3

     total cpu time spent up to now is      431.3 secs

     total energy              =    -774.69926460 Ry
     estimated scf accuracy    <       0.00003031 Ry

     total magnetization       =     3.94 Bohr mag/cell
     absolute magnetization    =     4.06 Bohr mag/cell

     iteration # 19     ecut=   120.00 Ry     beta= 0.40
     Davidson diagonalization with overlap
     ethr =  4.74E-08,  avg # of iterations =  1.7

     total cpu time spent up to now is      437.7 secs

     total energy              =    -774.69926680 Ry
     estimated scf accuracy    <       0.00000543 Ry

     total magnetization       =     3.94 Bohr mag/cell
     absolute magnetization    =     4.06 Bohr mag/cell

     iteration # 20     ecut=   120.00 Ry     beta= 0.40
     Davidson diagonalization with overlap
     ethr =  8.48E-09,  avg # of iterations =  1.9

     total cpu time spent up to now is      444.2 secs

     total energy              =    -774.69926728 Ry
     estimated scf accuracy    <       0.00000047 Ry

     total magnetization       =     3.94 Bohr mag/cell
     absolute magnetization    =     4.06 Bohr mag/cell

     iteration # 21     ecut=   120.00 Ry     beta= 0.40
     Davidson diagonalization with overlap
     ethr =  7.27E-10,  avg # of iterations =  2.0
 
     Magnetic moment per site  (integrated on atomic sphere of radius R)
     atom   1 (R=0.149)  charge= 16.2725  magn=  1.2750
     atom   2 (R=0.149)  charge= 16.2725  magn=  1.2751
     atom   3 (R=0.149)  charge=  3.0342  magn=  0.1568
     atom   4 (R=0.149)  charge=  3.0341  magn=  0.1568
     atom   5 (R=0.149)  charge=  3.0342  magn=  0.1568
     atom   6 (R=0.149)  charge=  3.0342  magn=  0.1568

     total cpu time spent up to now is      451.8 secs

     End of self-consistent calculation

     Number of k-points >= 100: set verbosity='high' to print the bands.

     the Fermi energy is     4.4606 ev

!    total energy              =    -774.69926738 Ry
     estimated scf accuracy    <       0.00000014 Ry
     smearing contrib. (-TS)   =      -0.00002401 Ry
     internal energy E=F+TS    =    -774.69924337 Ry

     The total energy is F=E-TS. E is the sum of the following terms:
     one-electron contribution =    -872.35747257 Ry
     hartree contribution      =     453.20818179 Ry
     xc contribution           =    -117.50840787 Ry
     ewald contribution        =    -237.96028382 Ry
     DFT-D3 Dispersion         =      -0.08126090 Ry

     total magnetization       =     3.94 Bohr mag/cell
     absolute magnetization    =     4.06 Bohr mag/cell

     convergence has been achieved in  21 iterations

     Forces acting on atoms (cartesian axes, Ry/au):

     atom    1 type  1   force =     0.00001554    0.00000000   -0.00001000
     atom    2 type  1   force =    -0.00000504    0.00000000   -0.00000874
     atom    3 type  2   force =    -0.02584580    0.00000000   -0.01008139
     atom    4 type  2   force =    -0.02584407    0.00000000   -0.01008667
     atom    5 type  2   force =     0.02584242    0.00000000    0.01009501
     atom    6 type  2   force =     0.02583694    0.00000000    0.01009179

     Total force =     0.055484     Total SCF correction =     0.000860


     Computing stress (Cartesian axis) and pressure

          total   stress  (Ry/bohr**3)                   (kbar)     P=       -0.33
   0.00011880   0.00000000  -0.00023236           17.48        0.00      -34.18
   0.00000000   0.00001867   0.00000000            0.00        2.75        0.00
  -0.00023236   0.00000000  -0.00014429          -34.18        0.00      -21.23

     Energy error            =      2.0E-02 Ry
     Gradient error          =      2.6E-02 Ry/Bohr
     Cell gradient error     =      3.4E+01 kbar

     number of scf cycles    =   3
     number of bfgs steps    =   2

     enthalpy           old  =    -774.6796242236 Ry
     enthalpy           new  =    -774.6992673818 Ry

     CASE: enthalpy          _new < enthalpy          _old

     new trust radius        =       0.3033541798 bohr
ibrav =    -12
 celldm(1) =     12.83789164
 celldm(2) =      0.57310764
 celldm(3) =      1.18429072
 celldm(5) =     -0.06681972
Input lattice vectors:
     1.03158710     0.00000000    -0.00166549
     0.00000000     0.59121122     0.00000000
    -0.07966557     0.00000000     1.21910041
New lattice vectors in INITIAL alat:
     1.03158845     0.00000000     0.00000000
     0.00000000     0.59121122     0.00000000
    -0.08163370     0.00000000     1.21897020
New lattice vectors in NEW alat (for information only):
     1.00000000     0.00000000     0.00000000
     0.00000000     0.57310764     0.00000000
    -0.07913398     0.00000000     1.18164391
Discrepancy in bohr =     0.001665    0.000000    0.001972
     new conv_thr            =       0.0000002585 Ry

     new unit-cell volume =   1432.86059 a.u.^3 (   212.32803 Ang^3 )
     density =      4.88793 g/cm^3

CELL_PARAMETERS (alat= 12.44478037)
   1.031588445   0.000000000   0.000000000
   0.000000000   0.591211224   0.000000000
  -0.081633698   0.000000000   1.218970202

ATOMIC_POSITIONS (crystal)
Ni            0.5000016724        0.0000000000        0.2420034182
Ni            0.0000036418        0.5000000000        0.2420073536
I             0.2203736202        0.0000000000        0.4510420362
I             0.7203769120        0.5000000000        0.4510457550
I             0.7796208511        0.0000000000        0.0329526047
I             0.2796233025        0.5000000000        0.0329488325



     Writing output data file ./tmp/monoclinic.save/
     NEW-OLD atomic charge density approx. for the potential
     extrapolated charge   64.49443, renormalised to   64.00000
     Generating pointlists ...

     total cpu time spent up to now is      465.3 secs

     Self-consistent Calculation

     iteration #  1     ecut=   120.00 Ry     beta= 0.40
     Davidson diagonalization with overlap
     c_bands:  1 eigenvalues not converged
     c_bands:  1 eigenvalues not converged
     c_bands:  1 eigenvalues not converged
     c_bands:  2 eigenvalues not converged
     ethr =  1.00E-06,  avg # of iterations = 12.8

     total cpu time spent up to now is      489.9 secs

     total energy              =    -774.01646524 Ry
     estimated scf accuracy    <       0.95242355 Ry

     total magnetization       =     4.00 Bohr mag/cell
     absolute magnetization    =     4.16 Bohr mag/cell

     iteration #  2     ecut=   120.00 Ry     beta= 0.40
     Davidson diagonalization with overlap
     ethr =  1.49E-03,  avg # of iterations =  3.0

     total cpu time spent up to now is      498.9 secs

     total energy              =    -774.57027919 Ry
     estimated scf accuracy    <       7.32639344 Ry

     total magnetization       =     1.18 Bohr mag/cell
     absolute magnetization    =     1.34 Bohr mag/cell

     iteration #  3     ecut=   120.00 Ry     beta= 0.40
     Davidson diagonalization with overlap
     ethr =  1.49E-03,  avg # of iterations =  2.0

     total cpu time spent up to now is      506.1 secs

     total energy              =    -774.73575441 Ry
     estimated scf accuracy    <       1.38770775 Ry

     total magnetization       =     2.66 Bohr mag/cell
     absolute magnetization    =     2.79 Bohr mag/cell

     iteration #  4     ecut=   120.00 Ry     beta= 0.40
     Davidson diagonalization with overlap
     ethr =  1.49E-03,  avg # of iterations =  1.0

     total cpu time spent up to now is      512.0 secs

     total energy              =    -774.72555193 Ry
     estimated scf accuracy    <       0.47668369 Ry

     total magnetization       =     3.37 Bohr mag/cell
     absolute magnetization    =     3.49 Bohr mag/cell

     iteration #  5     ecut=   120.00 Ry     beta= 0.40
     Davidson diagonalization with overlap
     ethr =  7.45E-04,  avg # of iterations =  1.0

     total cpu time spent up to now is      517.8 secs

     total energy              =    -774.72341132 Ry
     estimated scf accuracy    <       0.17046155 Ry

     total magnetization       =     3.76 Bohr mag/cell
     absolute magnetization    =     3.87 Bohr mag/cell

     iteration #  6     ecut=   120.00 Ry     beta= 0.40
     Davidson diagonalization with overlap
     ethr =  2.66E-04,  avg # of iterations =  1.0

     total cpu time spent up to now is      523.5 secs

     total energy              =    -774.72421272 Ry
     estimated scf accuracy    <       0.07025769 Ry

     total magnetization       =     3.96 Bohr mag/cell
     absolute magnetization    =     4.07 Bohr mag/cell

     iteration #  7     ecut=   120.00 Ry     beta= 0.40
     Davidson diagonalization with overlap
     ethr =  1.10E-04,  avg # of iterations =  1.1

     total cpu time spent up to now is      529.3 secs

     total energy              =    -774.71923714 Ry
     estimated scf accuracy    <       0.05300054 Ry

     total magnetization       =     3.94 Bohr mag/cell
     absolute magnetization    =     4.06 Bohr mag/cell

     iteration #  8     ecut=   120.00 Ry     beta= 0.40
     Davidson diagonalization with overlap
     ethr =  8.28E-05,  avg # of iterations =  1.3

     total cpu time spent up to now is      535.4 secs

     total energy              =    -774.71843415 Ry
     estimated scf accuracy    <       0.01231381 Ry

     total magnetization       =     3.94 Bohr mag/cell
     absolute magnetization    =     4.07 Bohr mag/cell

     iteration #  9     ecut=   120.00 Ry     beta= 0.40
     Davidson diagonalization with overlap
     ethr =  1.92E-05,  avg # of iterations =  4.7

     total cpu time spent up to now is      544.0 secs

     total energy              =    -774.71989239 Ry
     estimated scf accuracy    <       0.00008467 Ry

     total magnetization       =     4.00 Bohr mag/cell
     absolute magnetization    =     4.14 Bohr mag/cell

     iteration # 10     ecut=   120.00 Ry     beta= 0.40
     Davidson diagonalization with overlap
     ethr =  1.32E-07,  avg # of iterations =  6.1

     total cpu time spent up to now is      556.6 secs

     WARNING: integrated charge=    64.00012399, expected=    64.00000000

     total energy              =    -774.71969223 Ry
     estimated scf accuracy    <       0.00139038 Ry

     total magnetization       =     4.00 Bohr mag/cell
     absolute magnetization    =     4.14 Bohr mag/cell

     iteration # 11     ecut=   120.00 Ry     beta= 0.40
     Davidson diagonalization with overlap
     ethr =  1.32E-07,  avg # of iterations =  2.9

     total cpu time spent up to now is      565.5 secs

     WARNING: integrated charge=    64.00006459, expected=    64.00000000

     total energy              =    -774.71992775 Ry
     estimated scf accuracy    <       0.00001001 Ry

     total magnetization       =     4.00 Bohr mag/cell
     absolute magnetization    =     4.14 Bohr mag/cell

     iteration # 12     ecut=   120.00 Ry     beta= 0.40
     Davidson diagonalization with overlap
     ethr =  1.56E-08,  avg # of iterations =  1.9

     total cpu time spent up to now is      572.4 secs

     WARNING: integrated charge=    64.00001987, expected=    64.00000000

     total energy              =    -774.71992926 Ry
     estimated scf accuracy    <       0.00000219 Ry

     total magnetization       =     4.00 Bohr mag/cell
     absolute magnetization    =     4.14 Bohr mag/cell

     iteration # 13     ecut=   120.00 Ry     beta= 0.40
     Davidson diagonalization with overlap
     ethr =  3.42E-09,  avg # of iterations =  2.0

     total cpu time spent up to now is      580.0 secs

     WARNING: integrated charge=    64.00001564, expected=    64.00000000

     total energy              =    -774.71992966 Ry
     estimated scf accuracy    <       0.00000084 Ry

     total magnetization       =     4.00 Bohr mag/cell
     absolute magnetization    =     4.14 Bohr mag/cell

     iteration # 14     ecut=   120.00 Ry     beta= 0.40
     Davidson diagonalization with overlap
     ethr =  1.31E-09,  avg # of iterations =  1.2
 
     Magnetic moment per site  (integrated on atomic sphere of radius R)
     atom   1 (R=0.149)  charge= 16.2414  magn=  1.3007
     atom   2 (R=0.149)  charge= 16.2414  magn=  1.3007
     atom   3 (R=0.149)  charge=  3.0288  magn=  0.1594
     atom   4 (R=0.149)  charge=  3.0288  magn=  0.1594
     atom   5 (R=0.149)  charge=  3.0289  magn=  0.1594
     atom   6 (R=0.149)  charge=  3.0289  magn=  0.1594

     total cpu time spent up to now is      586.1 secs

     End of self-consistent calculation

     Number of k-points >= 100: set verbosity='high' to print the bands.

     the Fermi energy is     4.4188 ev

!    total energy              =    -774.71992978 Ry
     estimated scf accuracy    <       0.00000007 Ry
     smearing contrib. (-TS)   =       0.00000314 Ry
     internal energy E=F+TS    =    -774.71993292 Ry

     The total energy is F=E-TS. E is the sum of the following terms:
     one-electron contribution =    -865.76549369 Ry
     hartree contribution      =     449.72679641 Ry
     xc contribution           =    -117.45990042 Ry
     ewald contribution        =    -241.14051620 Ry
     DFT-D3 Dispersion         =      -0.08081901 Ry

     total magnetization       =     4.00 Bohr mag/cell
     absolute magnetization    =     4.14 Bohr mag/cell

     convergence has been achieved in  14 iterations

     Forces acting on atoms (cartesian axes, Ry/au):

     atom    1 type  1   force =     0.00000035    0.00000000    0.00000002
     atom    2 type  1   force =     0.00000512    0.00000000   -0.00000985
     atom    3 type  2   force =    -0.01534957    0.00000000   -0.02031864
     atom    4 type  2   force =    -0.01534734    0.00000000   -0.02031657
     atom    5 type  2   force =     0.01535254    0.00000000    0.02032156
     atom    6 type  2   force =     0.01533889    0.00000000    0.02032349

     Total force =     0.050929     Total SCF correction =     0.000169


     Computing stress (Cartesian axis) and pressure

          total   stress  (Ry/bohr**3)                   (kbar)     P=      -12.72
  -0.00001064   0.00000000  -0.00013526           -1.56        0.00      -19.90
   0.00000000  -0.00001669   0.00000000            0.00       -2.46        0.00
  -0.00013526   0.00000000  -0.00023213          -19.90        0.00      -34.15

     Energy error            =      2.1E-02 Ry
     Gradient error          =      2.0E-02 Ry/Bohr
     Cell gradient error     =      3.4E+01 kbar

     number of scf cycles    =   4
     number of bfgs steps    =   3

     enthalpy           old  =    -774.6992673818 Ry
     enthalpy           new  =    -774.7199297776 Ry

     CASE: enthalpy          _new < enthalpy          _old

     new trust radius        =       0.4712371221 bohr
ibrav =    -12
 celldm(1) =     13.03050482
 celldm(2) =      0.56559189
 celldm(3) =      1.15460920
 celldm(5) =     -0.13189308
Input lattice vectors:
     1.04706269     0.00000000    -0.00258145
     0.00000000     0.59221196     0.00000000
    -0.15649738     0.00000000     1.19877989
New lattice vectors in INITIAL alat:
     1.04706587     0.00000000     0.00000000
     0.00000000     0.59221196     0.00000000
    -0.15945239     0.00000000     1.19839042
New lattice vectors in NEW alat (for information only):
     1.00000000     0.00000000     0.00000000
     0.00000000     0.56559189     0.00000000
    -0.15228497     0.00000000     1.14452247
Discrepancy in bohr =     0.002581    0.000000    0.002981
     new conv_thr            =       0.0000002032 Ry

     new unit-cell volume =   1432.22489 a.u.^3 (   212.23383 Ang^3 )
     density =      4.89010 g/cm^3

CELL_PARAMETERS (alat= 12.44478037)
   1.047065873   0.000000000   0.000000000
   0.000000000   0.592211961   0.000000000
  -0.159452392   0.000000000   1.198390420

ATOMIC_POSITIONS (crystal)
Ni            0.5000069972        0.0000000000        0.2420063694
Ni            0.0000034334        0.5000000000        0.2420109081
I             0.2091161095        0.0000000000        0.4489568225
I             0.7091211597        0.5000000000        0.4489609429
I             0.7908756289        0.0000000000        0.0350355833
I             0.2908766712        0.5000000000        0.0350293738



     Writing output data file ./tmp/monoclinic.save/
     NEW-OLD atomic charge density approx. for the potential
     extrapolated charge   63.97159, renormalised to   64.00000
     Generating pointlists ...

     total cpu time spent up to now is      599.6 secs

     Self-consistent Calculation

     iteration #  1     ecut=   120.00 Ry     beta= 0.40
     Davidson diagonalization with overlap
     c_bands:  1 eigenvalues not converged
     c_bands:  1 eigenvalues not converged
     c_bands:  1 eigenvalues not converged
     ethr =  1.00E-06,  avg # of iterations = 12.5

     total cpu time spent up to now is      624.1 secs

     total energy              =    -774.73473363 Ry
     estimated scf accuracy    <       0.01071760 Ry

     total magnetization       =     4.00 Bohr mag/cell
     absolute magnetization    =     4.15 Bohr mag/cell

     iteration #  2     ecut=   120.00 Ry     beta= 0.40
     Davidson diagonalization with overlap
     ethr =  1.67E-05,  avg # of iterations =  2.4

     total cpu time spent up to now is      632.2 secs

     total energy              =    -774.73589588 Ry
     estimated scf accuracy    <       0.06771010 Ry

     total magnetization       =     4.00 Bohr mag/cell
     absolute magnetization    =     4.16 Bohr mag/cell

     iteration #  3     ecut=   120.00 Ry     beta= 0.40
     Davidson diagonalization with overlap
     ethr =  1.67E-05,  avg # of iterations =  2.0

     total cpu time spent up to now is      639.4 secs

     total energy              =    -774.73925498 Ry
     estimated scf accuracy    <       0.00329540 Ry

     total magnetization       =     4.00 Bohr mag/cell
     absolute magnetization    =     4.16 Bohr mag/cell

     iteration #  4     ecut=   120.00 Ry     beta= 0.40
     Davidson diagonalization with overlap
     ethr =  5.15E-06,  avg # of iterations =  2.2

     total cpu time spent up to now is      647.1 secs

     total energy              =    -774.74006700 Ry
     estimated scf accuracy    <       0.00483531 Ry

     total magnetization       =     4.00 Bohr mag/cell
     absolute magnetization    =     4.16 Bohr mag/cell

     iteration #  5     ecut=   120.00 Ry     beta= 0.40
     Davidson diagonalization with overlap
     ethr =  5.15E-06,  avg # of iterations =  1.0

     total cpu time spent up to now is      652.9 secs

     total energy              =    -774.74022151 Ry
     estimated scf accuracy    <       0.00054510 Ry

     total magnetization       =     4.00 Bohr mag/cell
     absolute magnetization    =     4.16 Bohr mag/cell

     iteration #  6     ecut=   120.00 Ry     beta= 0.40
     Davidson diagonalization with overlap
     ethr =  8.52E-07,  avg # of iterations =  1.6

     total cpu time spent up to now is      659.3 secs

     total energy              =    -774.74023519 Ry
     estimated scf accuracy    <       0.00009109 Ry

     total magnetization       =     4.00 Bohr mag/cell
     absolute magnetization    =     4.16 Bohr mag/cell

     iteration #  7     ecut=   120.00 Ry     beta= 0.40
     Davidson diagonalization with overlap
     ethr =  1.42E-07,  avg # of iterations =  2.3

     total cpu time spent up to now is      666.4 secs

     total energy              =    -774.74024565 Ry
     estimated scf accuracy    <       0.00002015 Ry

     total magnetization       =     4.00 Bohr mag/cell
     absolute magnetization    =     4.16 Bohr mag/cell

     iteration #  8     ecut=   120.00 Ry     beta= 0.40
     Davidson diagonalization with overlap
     ethr =  3.15E-08,  avg # of iterations =  2.5

     total cpu time spent up to now is      674.1 secs

     total energy              =    -774.74024682 Ry
     estimated scf accuracy    <       0.00002785 Ry

     total magnetization       =     4.00 Bohr mag/cell
     absolute magnetization    =     4.16 Bohr mag/cell

     iteration #  9     ecut=   120.00 Ry     beta= 0.40
     Davidson diagonalization with overlap
     ethr =  3.15E-08,  avg # of iterations =  1.6

     total cpu time spent up to now is      680.5 secs

     total energy              =    -774.74024921 Ry
     estimated scf accuracy    <       0.00000032 Ry

     total magnetization       =     4.00 Bohr mag/cell
     absolute magnetization    =     4.16 Bohr mag/cell

     iteration # 10     ecut=   120.00 Ry     beta= 0.40
     Davidson diagonalization with overlap
     ethr =  4.99E-10,  avg # of iterations =  4.2

     total cpu time spent up to now is      690.7 secs

     total energy              =    -774.74024933 Ry
     estimated scf accuracy    <       0.00000103 Ry

     total magnetization       =     4.00 Bohr mag/cell
     absolute magnetization    =     4.16 Bohr mag/cell

     iteration # 11     ecut=   120.00 Ry     beta= 0.40
     Davidson diagonalization with overlap
     ethr =  4.99E-10,  avg # of iterations =  2.1
 
     Magnetic moment per site  (integrated on atomic sphere of radius R)
     atom   1 (R=0.149)  charge= 16.2299  magn=  1.3063
     atom   2 (R=0.149)  charge= 16.2299  magn=  1.3063
     atom   3 (R=0.149)  charge=  3.0260  magn=  0.1599
     atom   4 (R=0.149)  charge=  3.0260  magn=  0.1599
     atom   5 (R=0.149)  charge=  3.0261  magn=  0.1599
     atom   6 (R=0.149)  charge=  3.0261  magn=  0.1599

     total cpu time spent up to now is      697.8 secs

     End of self-consistent calculation

     Number of k-points >= 100: set verbosity='high' to print the bands.

     the Fermi energy is     4.3534 ev

!    total energy              =    -774.74024940 Ry
     estimated scf accuracy    <       0.00000003 Ry
     smearing contrib. (-TS)   =       0.00000000 Ry
     internal energy E=F+TS    =    -774.74024940 Ry

     The total energy is F=E-TS. E is the sum of the following terms:
     one-electron contribution =    -857.35620494 Ry
     hartree contribution      =     445.53461961 Ry
     xc contribution           =    -117.44812758 Ry
     ewald contribution        =    -245.38991543 Ry
     DFT-D3 Dispersion         =      -0.08062106 Ry

     total magnetization       =     4.00 Bohr mag/cell
     absolute magnetization    =     4.16 Bohr mag/cell

     convergence has been achieved in  11 iterations

     Forces acting on atoms (cartesian axes, Ry/au):

     atom    1 type  1   force =    -0.00000558    0.00000000   -0.00001313
     atom    2 type  1   force =     0.00000098    0.00000000   -0.00001857
     atom    3 type  2   force =    -0.00435243    0.00000000   -0.02163815
     atom    4 type  2   force =    -0.00436008    0.00000000   -0.02163889
     atom    5 type  2   force =     0.00436030    0.00000000    0.02165198
     atom    6 type  2   force =     0.00435682    0.00000000    0.02165675

     Total force =     0.044161     Total SCF correction =     0.000210


     Computing stress (Cartesian axis) and pressure

          total   stress  (Ry/bohr**3)                   (kbar)     P=      -19.03
  -0.00010551   0.00000000  -0.00003767          -15.52        0.00       -5.54
   0.00000000  -0.00004405   0.00000000            0.00       -6.48        0.00
  -0.00003767   0.00000000  -0.00023850           -5.54        0.00      -35.08

     Energy error            =      2.0E-02 Ry
     Gradient error          =      2.2E-02 Ry/Bohr
     Cell gradient error     =      3.5E+01 kbar

     number of scf cycles    =   5
     number of bfgs steps    =   4

     enthalpy           old  =    -774.7199297776 Ry
     enthalpy           new  =    -774.7402494000 Ry

     CASE: enthalpy          _new < enthalpy          _old

     new trust radius        =       0.3593020876 bohr
ibrav =    -12
 celldm(1) =     13.13674944
 celldm(2) =      0.56091973
 celldm(3) =      1.13318499
 celldm(5) =     -0.18337307
Input lattice vectors:
     1.05560067     0.00000000    -0.00229249
     0.00000000     0.59210864     0.00000000
    -0.21679542     0.00000000     1.17638387
New lattice vectors in INITIAL alat:
     1.05560316     0.00000000     0.00000000
     0.00000000     0.59210864     0.00000000
    -0.21934970     0.00000000     1.17591027
New lattice vectors in NEW alat (for information only):
     1.00000000     0.00000000     0.00000000
     0.00000000     0.56091973     0.00000000
    -0.20779561     0.00000000     1.11397002
Discrepancy in bohr =     0.002292    0.000000    0.002598
     new conv_thr            =       0.0000002166 Ry

     new unit-cell volume =   1416.56977 a.u.^3 (   209.91398 Ang^3 )
     density =      4.94414 g/cm^3

CELL_PARAMETERS (alat= 12.44478037)
   1.055603156   0.000000000   0.000000000
   0.000000000   0.592108635   0.000000000
  -0.219349703   0.000000000   1.175910271

ATOMIC_POSITIONS (crystal)
Ni            0.5000104552        0.0000000000        0.2420077794
Ni            0.0000028382        0.5000000000        0.2420130677
I             0.2006562901        0.0000000000        0.4462998126
I             0.7006615608        0.5000000000        0.4463043794
I             0.7993340912        0.0000000000        0.0376915331
I             0.2993347644        0.5000000000        0.0376834277



     Writing output data file ./tmp/monoclinic.save/
     NEW-OLD atomic charge density approx. for the potential
     extrapolated charge   63.29272, renormalised to   64.00000
     Generating pointlists ...

     total cpu time spent up to now is      711.4 secs

     Self-consistent Calculation

     iteration #  1     ecut=   120.00 Ry     beta= 0.40
     Davidson diagonalization with overlap
     c_bands:  2 eigenvalues not converged
     c_bands:  1 eigenvalues not converged
     c_bands:  1 eigenvalues not converged
     c_bands:  2 eigenvalues not converged
     c_bands:  1 eigenvalues not converged
     c_bands:  2 eigenvalues not converged
     c_bands:  2 eigenvalues not converged
     c_bands:  1 eigenvalues not converged
     c_bands:  1 eigenvalues not converged
     c_bands:  1 eigenvalues not converged
     c_bands:  2 eigenvalues not converged
     c_bands:  1 eigenvalues not converged
     ethr =  1.00E-06,  avg # of iterations = 14.6

     total cpu time spent up to now is      737.0 secs

     total energy              =    -772.70911551 Ry
     estimated scf accuracy    <       2.99131950 Ry

     total magnetization       =     2.50 Bohr mag/cell
     absolute magnetization    =     2.69 Bohr mag/cell

     iteration #  2     ecut=   120.00 Ry     beta= 0.40
     Davidson diagonalization with overlap
     ethr =  4.67E-03,  avg # of iterations =  5.9

     total cpu time spent up to now is      748.6 secs

     total energy              =    -770.20686546 Ry
     estimated scf accuracy    <      71.71026338 Ry

     total magnetization       =     1.75 Bohr mag/cell
     absolute magnetization    =     1.77 Bohr mag/cell

     iteration #  3     ecut=   120.00 Ry     beta= 0.40
     Davidson diagonalization with overlap
     ethr =  4.67E-03,  avg # of iterations =  5.0

     total cpu time spent up to now is      759.2 secs

     total energy              =    -774.72091739 Ry
     estimated scf accuracy    <       0.87196175 Ry

     total magnetization       =     3.69 Bohr mag/cell
     absolute magnetization    =     3.80 Bohr mag/cell

     iteration #  4     ecut=   120.00 Ry     beta= 0.40
     Davidson diagonalization with overlap
     ethr =  1.36E-03,  avg # of iterations =  2.6

     total cpu time spent up to now is      766.9 secs

     total energy              =    -774.74794412 Ry
     estimated scf accuracy    <       0.38135042 Ry

     total magnetization       =     3.89 Bohr mag/cell
     absolute magnetization    =     4.02 Bohr mag/cell

     iteration #  5     ecut=   120.00 Ry     beta= 0.40
     Davidson diagonalization with overlap
     ethr =  5.96E-04,  avg # of iterations =  1.6

     total cpu time spent up to now is      773.6 secs

     total energy              =    -774.75089727 Ry
     estimated scf accuracy    <       0.20534856 Ry

     total magnetization       =     3.96 Bohr mag/cell
     absolute magnetization    =     4.09 Bohr mag/cell

     iteration #  6     ecut=   120.00 Ry     beta= 0.40
     Davidson diagonalization with overlap
     ethr =  3.21E-04,  avg # of iterations =  1.1

     total cpu time spent up to now is      779.5 secs

     total energy              =    -774.75082216 Ry
     estimated scf accuracy    <       0.11008499 Ry

     total magnetization       =     3.96 Bohr mag/cell
     absolute magnetization    =     4.10 Bohr mag/cell

     iteration #  7     ecut=   120.00 Ry     beta= 0.40
     Davidson diagonalization with overlap
     ethr =  1.72E-04,  avg # of iterations =  1.1

     total cpu time spent up to now is      785.4 secs

     total energy              =    -774.74883153 Ry
     estimated scf accuracy    <       0.07838043 Ry

     total magnetization       =     4.00 Bohr mag/cell
     absolute magnetization    =     4.14 Bohr mag/cell

     iteration #  8     ecut=   120.00 Ry     beta= 0.40
     Davidson diagonalization with overlap
     ethr =  1.22E-04,  avg # of iterations =  1.2

     total cpu time spent up to now is      791.3 secs

     total energy              =    -774.74516579 Ry
     estimated scf accuracy    <       0.03186964 Ry

     total magnetization       =     4.00 Bohr mag/cell
     absolute magnetization    =     4.15 Bohr mag/cell

     iteration #  9     ecut=   120.00 Ry     beta= 0.40
     Davidson diagonalization with overlap
     ethr =  4.98E-05,  avg # of iterations =  2.6

     total cpu time spent up to now is      798.6 secs

     total energy              =    -774.74711208 Ry
     estimated scf accuracy    <       0.00179372 Ry

     total magnetization       =     4.00 Bohr mag/cell
     absolute magnetization    =     4.16 Bohr mag/cell

     iteration # 10     ecut=   120.00 Ry     beta= 0.40
     Davidson diagonalization with overlap
     ethr =  2.80E-06,  avg # of iterations =  5.9

     total cpu time spent up to now is      810.2 secs

     total energy              =    -774.74760094 Ry
     estimated scf accuracy    <       0.00028055 Ry

     total magnetization       =     4.00 Bohr mag/cell
     absolute magnetization    =     4.16 Bohr mag/cell

     iteration # 11     ecut=   120.00 Ry     beta= 0.40
     Davidson diagonalization with overlap
     ethr =  4.38E-07,  avg # of iterations =  2.0

     total cpu time spent up to now is      817.7 secs

     total energy              =    -774.74763539 Ry
     estimated scf accuracy    <       0.00006179 Ry

     total magnetization       =     4.00 Bohr mag/cell
     absolute magnetization    =     4.16 Bohr mag/cell

     iteration # 12     ecut=   120.00 Ry     beta= 0.40
     Davidson diagonalization with overlap
     ethr =  9.65E-08,  avg # of iterations =  2.0

     total cpu time spent up to now is      825.0 secs

     total energy              =    -774.74764874 Ry
     estimated scf accuracy    <       0.00000288 Ry

     total magnetization       =     4.00 Bohr mag/cell
     absolute magnetization    =     4.16 Bohr mag/cell

     iteration # 13     ecut=   120.00 Ry     beta= 0.40
     Davidson diagonalization with overlap
     ethr =  4.50E-09,  avg # of iterations =  2.2

     total cpu time spent up to now is      832.8 secs

     total energy              =    -774.74764972 Ry
     estimated scf accuracy    <       0.00000106 Ry

     total magnetization       =     4.00 Bohr mag/cell
     absolute magnetization    =     4.16 Bohr mag/cell

     iteration # 14     ecut=   120.00 Ry     beta= 0.40
     Davidson diagonalization with overlap
     ethr =  1.66E-09,  avg # of iterations =  2.0

     total cpu time spent up to now is      840.3 secs

     total energy              =    -774.74765012 Ry
     estimated scf accuracy    <       0.00000043 Ry

     total magnetization       =     4.00 Bohr mag/cell
     absolute magnetization    =     4.16 Bohr mag/cell

     iteration # 15     ecut=   120.00 Ry     beta= 0.40
     Davidson diagonalization with overlap
     ethr =  6.72E-10,  avg # of iterations =  2.0
 
     Magnetic moment per site  (integrated on atomic sphere of radius R)
     atom   1 (R=0.149)  charge= 16.2462  magn=  1.2963
     atom   2 (R=0.149)  charge= 16.2461  magn=  1.2964
     atom   3 (R=0.149)  charge=  3.0289  magn=  0.1624
     atom   4 (R=0.149)  charge=  3.0289  magn=  0.1624
     atom   5 (R=0.149)  charge=  3.0289  magn=  0.1624
     atom   6 (R=0.149)  charge=  3.0289  magn=  0.1624

     total cpu time spent up to now is      848.0 secs

     End of self-consistent calculation

     Number of k-points >= 100: set verbosity='high' to print the bands.

     the Fermi energy is     4.5216 ev

!    total energy              =    -774.74765015 Ry
     estimated scf accuracy    <       0.00000017 Ry
     smearing contrib. (-TS)   =       0.00000000 Ry
     internal energy E=F+TS    =    -774.74765015 Ry

     The total energy is F=E-TS. E is the sum of the following terms:
     one-electron contribution =    -851.65025173 Ry
     hartree contribution      =     442.92118415 Ry
     xc contribution           =    -117.49121712 Ry
     ewald contribution        =    -248.44663114 Ry
     DFT-D3 Dispersion         =      -0.08073431 Ry

     total magnetization       =     4.00 Bohr mag/cell
     absolute magnetization    =     4.16 Bohr mag/cell

     convergence has been achieved in  15 iterations

     Forces acting on atoms (cartesian axes, Ry/au):

     atom    1 type  1   force =    -0.00001198    0.00000000   -0.00002034
     atom    2 type  1   force =    -0.00000460    0.00000000   -0.00002219
     atom    3 type  2   force =     0.00371203    0.00000000   -0.01182655
     atom    4 type  2   force =     0.00370284    0.00000000   -0.01183296
     atom    5 type  2   force =    -0.00370029    0.00000000    0.01184648
     atom    6 type  2   force =    -0.00369799    0.00000000    0.01185555

     Total force =     0.024812     Total SCF correction =     0.000207


     Computing stress (Cartesian axis) and pressure

          total   stress  (Ry/bohr**3)                   (kbar)     P=      -13.23
  -0.00010091   0.00000000   0.00003137          -14.85        0.00        4.61
   0.00000000  -0.00001660   0.00000000            0.00       -2.44        0.00
   0.00003137   0.00000000  -0.00015229            4.61        0.00      -22.40

     Energy error            =      7.4E-03 Ry
     Gradient error          =      1.2E-02 Ry/Bohr
     Cell gradient error     =      2.2E+01 kbar

     number of scf cycles    =   6
     number of bfgs steps    =   5

     enthalpy           old  =    -774.7402494000 Ry
     enthalpy           new  =    -774.7476501498 Ry

     CASE: enthalpy          _new < enthalpy          _old

     new trust radius        =       0.0377623360 bohr
ibrav =    -12
 celldm(1) =     13.11270484
 celldm(2) =      0.56168749
 celldm(3) =      1.13005746
 celldm(5) =     -0.18489843
Input lattice vectors:
     1.05367031     0.00000000    -0.00125340
     0.00000000     0.59183385     0.00000000
    -0.21876804     0.00000000     1.17043927
New lattice vectors in INITIAL alat:
     1.05367105     0.00000000     0.00000000
     0.00000000     0.59183385     0.00000000
    -0.22016019     0.00000000     1.17017820
New lattice vectors in NEW alat (for information only):
     1.00000000     0.00000000     0.00000000
     0.00000000     0.56168749     0.00000000
    -0.20894585     0.00000000     1.11057260
[...]
                l(6) =   2

     atomic species   valence    mass     pseudopotential
        Ni            18.00    58.69340     Ni( 1.00)
        I              7.00   126.90447     I ( 1.00)

     Starting magnetic structure 
     atomic species   magnetization
        Ni           0.078
        I            0.056

      2 Sym. Ops. (no inversion) found



   Cartesian axes

     site n.     atom                  positions (alat units)
         1           Ni  tau(   1) = (   0.4697388   0.0000000   0.2482221  )
         2           Ni  tau(   2) = (  -0.0474086   0.3002014   0.2482195  )
         3           I   tau(   3) = (   0.1243092   0.0000000   0.4783833  )
         4           I   tau(   4) = (   0.6414597   0.3002014   0.4783816  )
         5           I   tau(   5) = (   0.8151704   0.0000000   0.0180571  )
         6           I   tau(   6) = (   0.2980152   0.3002014   0.0180631  )

     number of k points=    80  Marzari-Vanderbilt smearing, width (Ry)=  0.0015
                       cart. coord. in units 2pi/alat
        k(    1) = (   0.0000000   0.0000000   0.0000000), wk =   0.0046296
        k(    2) = (   0.0000000   0.0000000   0.1624895), wk =   0.0092593
        k(    3) = (   0.0000000   0.0000000   0.3249791), wk =   0.0092593
        k(    4) = (   0.0000000   0.0000000  -0.4874686), wk =   0.0046296
        k(    5) = (   0.0000000   0.2775914   0.0000000), wk =   0.0092593
        k(    6) = (   0.0000000   0.2775914   0.1624895), wk =   0.0185185
        k(    7) = (   0.0000000   0.2775914   0.3249791), wk =   0.0185185
        k(    8) = (   0.0000000   0.2775914  -0.4874686), wk =   0.0092593
        k(    9) = (   0.0000000   0.5551828   0.0000000), wk =   0.0092593
        k(   10) = (   0.0000000   0.5551828   0.1624895), wk =   0.0185185
        k(   11) = (   0.0000000   0.5551828   0.3249791), wk =   0.0185185
        k(   12) = (   0.0000000   0.5551828  -0.4874686), wk =   0.0092593
        k(   13) = (   0.0000000  -0.8327741   0.0000000), wk =   0.0046296
        k(   14) = (   0.0000000  -0.8327741   0.1624895), wk =   0.0092593
        k(   15) = (   0.0000000  -0.8327741   0.3249791), wk =   0.0092593
        k(   16) = (   0.0000000  -0.8327741  -0.4874686), wk =   0.0046296
        k(   17) = (   0.1611392   0.0000000   0.0307787), wk =   0.0092593
        k(   18) = (   0.1611392   0.0000000   0.1932682), wk =   0.0092593
        k(   19) = (   0.1611392   0.0000000   0.3557578), wk =   0.0092593
        k(   20) = (   0.1611392   0.0000000  -0.4566899), wk =   0.0092593
        k(   21) = (   0.1611392   0.0000000  -0.2942003), wk =   0.0092593
        k(   22) = (   0.1611392   0.0000000  -0.1317108), wk =   0.0092593
        k(   23) = (   0.1611392   0.2775914   0.0307787), wk =   0.0185185
        k(   24) = (   0.1611392   0.2775914   0.1932682), wk =   0.0185185
        k(   25) = (   0.1611392   0.2775914   0.3557578), wk =   0.0185185
        k(   26) = (   0.1611392   0.2775914  -0.4566899), wk =   0.0185185
        k(   27) = (   0.1611392   0.2775914  -0.2942003), wk =   0.0185185
        k(   28) = (   0.1611392   0.2775914  -0.1317108), wk =   0.0185185
        k(   29) = (   0.1611392   0.5551828   0.0307787), wk =   0.0185185
        k(   30) = (   0.1611392   0.5551828   0.1932682), wk =   0.0185185
        k(   31) = (   0.1611392   0.5551828   0.3557578), wk =   0.0185185
        k(   32) = (   0.1611392   0.5551828  -0.4566899), wk =   0.0185185
        k(   33) = (   0.1611392   0.5551828  -0.2942003), wk =   0.0185185
        k(   34) = (   0.1611392   0.5551828  -0.1317108), wk =   0.0185185
        k(   35) = (   0.1611392  -0.8327741   0.0307787), wk =   0.0092593
        k(   36) = (   0.1611392  -0.8327741   0.1932682), wk =   0.0092593
        k(   37) = (   0.1611392  -0.8327741   0.3557578), wk =   0.0092593
        k(   38) = (   0.1611392  -0.8327741  -0.4566899), wk =   0.0092593
        k(   39) = (   0.1611392  -0.8327741  -0.2942003), wk =   0.0092593
        k(   40) = (   0.1611392  -0.8327741  -0.1317108), wk =   0.0092593
        k(   41) = (   0.3222784   0.0000000   0.0615574), wk =   0.0092593
        k(   42) = (   0.3222784   0.0000000   0.2240470), wk =   0.0092593
        k(   43) = (   0.3222784   0.0000000   0.3865365), wk =   0.0092593
        k(   44) = (   0.3222784   0.0000000  -0.4259112), wk =   0.0092593
        k(   45) = (   0.3222784   0.0000000  -0.2634216), wk =   0.0092593
        k(   46) = (   0.3222784   0.0000000  -0.1009321), wk =   0.0092593
        k(   47) = (   0.3222784   0.2775914   0.0615574), wk =   0.0185185
        k(   48) = (   0.3222784   0.2775914   0.2240470), wk =   0.0185185
        k(   49) = (   0.3222784   0.2775914   0.3865365), wk =   0.0185185
        k(   50) = (   0.3222784   0.2775914  -0.4259112), wk =   0.0185185
        k(   51) = (   0.3222784   0.2775914  -0.2634216), wk =   0.0185185
        k(   52) = (   0.3222784   0.2775914  -0.1009321), wk =   0.0185185
        k(   53) = (   0.3222784   0.5551828   0.0615574), wk =   0.0185185
        k(   54) = (   0.3222784   0.5551828   0.2240470), wk =   0.0185185
        k(   55) = (   0.3222784   0.5551828   0.3865365), wk =   0.0185185
        k(   56) = (   0.3222784   0.5551828  -0.4259112), wk =   0.0185185
        k(   57) = (   0.3222784   0.5551828  -0.2634216), wk =   0.0185185
        k(   58) = (   0.3222784   0.5551828  -0.1009321), wk =   0.0185185
        k(   59) = (   0.3222784  -0.8327741   0.0615574), wk =   0.0092593
        k(   60) = (   0.3222784  -0.8327741   0.2240470), wk =   0.0092593
        k(   61) = (   0.3222784  -0.8327741   0.3865365), wk =   0.0092593
        k(   62) = (   0.3222784  -0.8327741  -0.4259112), wk =   0.0092593
        k(   63) = (   0.3222784  -0.8327741  -0.2634216), wk =   0.0092593
        k(   64) = (   0.3222784  -0.8327741  -0.1009321), wk =   0.0092593
        k(   65) = (  -0.4834175   0.0000000  -0.0923361), wk =   0.0046296
        k(   66) = (  -0.4834175   0.0000000   0.0701534), wk =   0.0092593
        k(   67) = (  -0.4834175   0.0000000   0.2326429), wk =   0.0092593
        k(   68) = (  -0.4834175   0.0000000  -0.5798047), wk =   0.0046296
        k(   69) = (  -0.4834175   0.2775914  -0.0923361), wk =   0.0092593
        k(   70) = (  -0.4834175   0.2775914   0.0701534), wk =   0.0185185
        k(   71) = (  -0.4834175   0.2775914   0.2326429), wk =   0.0185185
        k(   72) = (  -0.4834175   0.2775914  -0.5798047), wk =   0.0092593
        k(   73) = (  -0.4834175   0.5551828  -0.0923361), wk =   0.0092593
        k(   74) = (  -0.4834175   0.5551828   0.0701534), wk =   0.0185185
        k(   75) = (  -0.4834175   0.5551828   0.2326429), wk =   0.0185185
        k(   76) = (  -0.4834175   0.5551828  -0.5798047), wk =   0.0092593
        k(   77) = (  -0.4834175  -0.8327741  -0.0923361), wk =   0.0046296
        k(   78) = (  -0.4834175  -0.8327741   0.0701534), wk =   0.0092593
        k(   79) = (  -0.4834175  -0.8327741   0.2326429), wk =   0.0092593
        k(   80) = (  -0.4834175  -0.8327741  -0.5798047), wk =   0.0046296

     Dense  grid:   231781 G-vectors     FFT dimensions: (  96,  54,  96)

     Smooth grid:   217971 G-vectors     FFT dimensions: (  90,  54,  96)

     Estimated max dynamical RAM per process >      48.04 MB

     Estimated total dynamical RAM >       3.64 GB
     Generating pointlists ...

     Initial potential from superposition of free atoms

     starting charge   63.99922, renormalised to   64.00000
     Starting wfcs are   36 randomized atomic wfcs +    2 random wfcs

     total cpu time spent up to now is     3890.8 secs

     Self-consistent Calculation

     iteration #  1     ecut=   120.00 Ry     beta= 0.40
     Davidson diagonalization with overlap
     c_bands:  1 eigenvalues not converged
     c_bands:  1 eigenvalues not converged
     c_bands:  1 eigenvalues not converged
     c_bands:  1 eigenvalues not converged
     c_bands:  1 eigenvalues not converged
     c_bands:  1 eigenvalues not converged
     c_bands:  1 eigenvalues not converged
     c_bands:  1 eigenvalues not converged
     c_bands:  1 eigenvalues not converged
     c_bands:  1 eigenvalues not converged
     c_bands:  1 eigenvalues not converged
     c_bands:  1 eigenvalues not converged
     c_bands:  1 eigenvalues not converged
     c_bands:  1 eigenvalues not converged
     c_bands:  2 eigenvalues not converged
     c_bands:  2 eigenvalues not converged
     c_bands:  2 eigenvalues not converged
     c_bands:  2 eigenvalues not converged
     c_bands:  2 eigenvalues not converged
     c_bands:  1 eigenvalues not converged
     c_bands:  1 eigenvalues not converged
     c_bands:  2 eigenvalues not converged
     c_bands:  1 eigenvalues not converged
     c_bands:  1 eigenvalues not converged
     c_bands:  2 eigenvalues not converged
     c_bands:  2 eigenvalues not converged
     c_bands:  2 eigenvalues not converged
     c_bands:  2 eigenvalues not converged
     c_bands:  1 eigenvalues not converged
     c_bands:  1 eigenvalues not converged
     c_bands:  2 eigenvalues not converged
     ethr =  1.00E-06,  avg # of iterations = 18.4

     total cpu time spent up to now is     3917.2 secs

     total energy              =    -773.67242116 Ry
     estimated scf accuracy    <       2.24878562 Ry

     total magnetization       =     1.78 Bohr mag/cell
     absolute magnetization    =     1.85 Bohr mag/cell

     iteration #  2     ecut=   120.00 Ry     beta= 0.40
     Davidson diagonalization with overlap
     ethr =  3.51E-03,  avg # of iterations =  3.1

     total cpu time spent up to now is     3925.7 secs

     total energy              =    -773.30794673 Ry
     estimated scf accuracy    <      12.98238906 Ry

     total magnetization       =     4.52 Bohr mag/cell
     absolute magnetization    =     4.58 Bohr mag/cell

     iteration #  3     ecut=   120.00 Ry     beta= 0.40
     Davidson diagonalization with overlap
     ethr =  3.51E-03,  avg # of iterations =  2.8

     total cpu time spent up to now is     3933.8 secs

     total energy              =    -774.72507313 Ry
     estimated scf accuracy    <       0.06636220 Ry

     total magnetization       =     3.75 Bohr mag/cell
     absolute magnetization    =     3.78 Bohr mag/cell

     iteration #  4     ecut=   120.00 Ry     beta= 0.40
     Davidson diagonalization with overlap
     ethr =  1.04E-04,  avg # of iterations =  3.3

     total cpu time spent up to now is     3942.0 secs

     total energy              =    -774.74535407 Ry
     estimated scf accuracy    <       0.03967151 Ry

     total magnetization       =     3.80 Bohr mag/cell
     absolute magnetization    =     3.84 Bohr mag/cell

     iteration #  5     ecut=   120.00 Ry     beta= 0.40
     Davidson diagonalization with overlap
     ethr =  6.20E-05,  avg # of iterations =  1.0

     total cpu time spent up to now is     3947.5 secs

     total energy              =    -774.76243409 Ry
     estimated scf accuracy    <       0.04679835 Ry

     total magnetization       =     3.97 Bohr mag/cell
     absolute magnetization    =     4.03 Bohr mag/cell

     iteration #  6     ecut=   120.00 Ry     beta= 0.40
     Davidson diagonalization with overlap
     ethr =  6.20E-05,  avg # of iterations =  1.3

     total cpu time spent up to now is     3953.5 secs

     total energy              =    -774.76382292 Ry
     estimated scf accuracy    <       0.04615840 Ry

     total magnetization       =     4.00 Bohr mag/cell
     absolute magnetization    =     4.12 Bohr mag/cell

     iteration #  7     ecut=   120.00 Ry     beta= 0.40
     Davidson diagonalization with overlap
     ethr =  6.20E-05,  avg # of iterations =  1.0

     total cpu time spent up to now is     3959.0 secs

     total energy              =    -774.76041087 Ry
     estimated scf accuracy    <       0.03095630 Ry

     total magnetization       =     4.00 Bohr mag/cell
     absolute magnetization    =     4.13 Bohr mag/cell

     iteration #  8     ecut=   120.00 Ry     beta= 0.40
     Davidson diagonalization with overlap
     ethr =  4.84E-05,  avg # of iterations =  1.1

     total cpu time spent up to now is     3964.6 secs

     total energy              =    -774.75956349 Ry
     estimated scf accuracy    <       0.00722877 Ry

     total magnetization       =     4.00 Bohr mag/cell
     absolute magnetization    =     4.15 Bohr mag/cell

     iteration #  9     ecut=   120.00 Ry     beta= 0.40
     Davidson diagonalization with overlap
     ethr =  1.13E-05,  avg # of iterations =  2.0

     total cpu time spent up to now is     3971.3 secs

     total energy              =    -774.76088641 Ry
     estimated scf accuracy    <       0.00033921 Ry

     total magnetization       =     4.00 Bohr mag/cell
     absolute magnetization    =     4.15 Bohr mag/cell

     iteration # 10     ecut=   120.00 Ry     beta= 0.40
     Davidson diagonalization with overlap
     ethr =  5.30E-07,  avg # of iterations =  3.4

     total cpu time spent up to now is     3978.7 secs

     total energy              =    -774.76087780 Ry
     estimated scf accuracy    <       0.00016262 Ry

     total magnetization       =     4.00 Bohr mag/cell
     absolute magnetization    =     4.15 Bohr mag/cell

     iteration # 11     ecut=   120.00 Ry     beta= 0.40
     Davidson diagonalization with overlap
     ethr =  2.54E-07,  avg # of iterations =  1.5

     total cpu time spent up to now is     3985.0 secs

     total energy              =    -774.76089276 Ry
     estimated scf accuracy    <       0.00000711 Ry

     total magnetization       =     4.00 Bohr mag/cell
     absolute magnetization    =     4.15 Bohr mag/cell

     iteration # 12     ecut=   120.00 Ry     beta= 0.40
     Davidson diagonalization with overlap
     ethr =  1.11E-08,  avg # of iterations =  3.2

     total cpu time spent up to now is     3993.3 secs

     total energy              =    -774.76089466 Ry
     estimated scf accuracy    <       0.00000131 Ry

     total magnetization       =     4.00 Bohr mag/cell
     absolute magnetization    =     4.16 Bohr mag/cell

     iteration # 13     ecut=   120.00 Ry     beta= 0.40
     Davidson diagonalization with overlap
     ethr =  2.05E-09,  avg # of iterations =  2.3

     total cpu time spent up to now is     4000.6 secs

     total energy              =    -774.76089501 Ry
     estimated scf accuracy    <       0.00000015 Ry

     total magnetization       =     4.00 Bohr mag/cell
     absolute magnetization    =     4.16 Bohr mag/cell

     iteration # 14     ecut=   120.00 Ry     beta= 0.40
     Davidson diagonalization with overlap
     ethr =  2.33E-10,  avg # of iterations =  2.7

     total cpu time spent up to now is     4008.7 secs

     total energy              =    -774.76089510 Ry
     estimated scf accuracy    <       0.00000001 Ry

     total magnetization       =     4.00 Bohr mag/cell
     absolute magnetization    =     4.16 Bohr mag/cell

     iteration # 15     ecut=   120.00 Ry     beta= 0.40
     Davidson diagonalization with overlap
     ethr =  2.02E-11,  avg # of iterations =  3.3
 
     Magnetic moment per site  (integrated on atomic sphere of radius R)
     atom   1 (R=0.149)  charge= 16.2758  magn=  1.2736
     atom   2 (R=0.149)  charge= 16.2758  magn=  1.2736
     atom   3 (R=0.149)  charge=  3.0355  magn=  0.1695
     atom   4 (R=0.149)  charge=  3.0355  magn=  0.1695
     atom   5 (R=0.149)  charge=  3.0354  magn=  0.1695
     atom   6 (R=0.149)  charge=  3.0354  magn=  0.1695

     total cpu time spent up to now is     4017.8 secs

     End of self-consistent calculation

     Number of k-points >= 100: set verbosity='high' to print the bands.

     the Fermi energy is     6.0283 ev

!    total energy              =    -774.76089511 Ry
     estimated scf accuracy    <          6.5E-09 Ry
     smearing contrib. (-TS)   =       0.00000000 Ry
     internal energy E=F+TS    =    -774.76089511 Ry

     The total energy is F=E-TS. E is the sum of the following terms:
     one-electron contribution =    -747.67662155 Ry
     hartree contribution      =     394.45106215 Ry
     xc contribution           =    -117.60335906 Ry
     ewald contribution        =    -303.84004379 Ry
     DFT-D3 Dispersion         =      -0.09193286 Ry

     total magnetization       =     4.00 Bohr mag/cell
     absolute magnetization    =     4.16 Bohr mag/cell

     convergence has been achieved in  15 iterations

     Forces acting on atoms (cartesian axes, Ry/au):

     atom    1 type  1   force =     0.00000154    0.00000000   -0.00000094
     atom    2 type  1   force =    -0.00000563    0.00000000    0.00000222
     atom    3 type  2   force =     0.00022900    0.00000000    0.00026043
     atom    4 type  2   force =     0.00023210    0.00000000    0.00025903
     atom    5 type  2   force =    -0.00023164    0.00000000   -0.00025734
     atom    6 type  2   force =    -0.00022537    0.00000000   -0.00026339

     Total force =     0.000694     Total SCF correction =     0.000092
     SCF correction compared to forces is large: reduce conv_thr to get better values


     Computing stress (Cartesian axis) and pressure

          total   stress  (Ry/bohr**3)                   (kbar)     P=        0.30
   0.00000148   0.00000000  -0.00000153            0.22        0.00       -0.23
   0.00000000   0.00000143   0.00000000            0.00        0.21        0.00
  -0.00000153   0.00000000   0.00000314           -0.23        0.00        0.46


     Writing output data file ./tmp/monoclinic.save/
 
     init_run     :      9.93s CPU     11.60s WALL (       2 calls)
     electrons    :   3604.50s CPU   3643.51s WALL (      28 calls)
     update_pot   :     94.17s CPU     94.24s WALL (      26 calls)
     forces       :     77.85s CPU     77.99s WALL (      28 calls)
     force_dftd3  :      4.96s CPU      4.98s WALL (      28 calls)
     stress       :    194.68s CPU    194.88s WALL (      28 calls)
     stres_dftd3  :      5.02s CPU      5.02s WALL (      28 calls)

     Called by init_run:
     wfcinit      :      4.46s CPU      5.35s WALL (       2 calls)
     potinit      :      1.74s CPU      1.79s WALL (       2 calls)
     hinit0       :      3.54s CPU      4.07s WALL (       2 calls)

     Called by electrons:
     c_bands      :   3231.24s CPU   3262.85s WALL (     464 calls)
     sum_band     :    340.49s CPU    345.76s WALL (     464 calls)
     v_of_rho     :     24.11s CPU     24.25s WALL (     492 calls)
     mix_rho      :      3.44s CPU      3.53s WALL (     464 calls)
     energy_dftd3 :      4.08s CPU      4.08s WALL (      28 calls)

     Called by c_bands:
     init_us_2    :     62.67s CPU     63.49s WALL (   78880 calls)
     cegterg      :   2929.46s CPU   2959.01s WALL (   37120 calls)

     Called by *egterg:
     cdiaghg      :    799.88s CPU    803.67s WALL (  127725 calls)
     h_psi        :   1661.47s CPU   1685.48s WALL (  129965 calls)
     g_psi        :      7.67s CPU      7.71s WALL (   92685 calls)

     Called by h_psi:
     h_psi:calbec :     95.90s CPU     97.31s WALL (  129965 calls)
     vloc_psi     :   1471.72s CPU   1493.24s WALL (  129965 calls)
     add_vuspsi   :     80.97s CPU     82.11s WALL (  129965 calls)

     General routines
     calbec       :    109.76s CPU    111.30s WALL (  141165 calls)
     fft          :      7.13s CPU      7.69s WALL (   12350 calls)
     ffts         :      0.65s CPU      0.66s WALL (    1912 calls)
     fftw         :   1627.35s CPU   1651.44s WALL ( 8460722 calls)
     interpolate  :      0.73s CPU      0.74s WALL (     984 calls)
 
     Parallel routines
 
     PWSCF        :      1h 6m CPU      1h 7m WALL

 
   This run was terminated on:  18: 9:39  27Feb2023            

=------------------------------------------------------------------------------=
   JOB DONE.
=------------------------------------------------------------------------------=
