
     Program PWSCF v.6.8 starts on 27Feb2023 at 16:35:30 

     This program is part of the open-source Quantum ESPRESSO suite
     for quantum simulation of materials; please cite
         "P. Giannozzi et al., J. Phys.:Condens. Matter 21 395502 (2009);
         "P. Giannozzi et al., J. Phys.:Condens. Matter 29 465901 (2017);
         "P. Giannozzi et al., J. Chem. Phys. 152 154105 (2020);
          URL http://www.quantum-espresso.org", 
     in publications or presentations arising from this work. More details at
     http://www.quantum-espresso.org/quote

     Parallel version (MPI & OpenMP), running on      80 processor cores
     Number of MPI processes:                80
     Threads/MPI process:                     1

     MPI processes distributed on     2 nodes
     K-points division:     npool     =       2
     R & G space division:  proc/nbgrp/npool/nimage =      40
     178192 MiB available memory on the printing compute node when the environment starts
 
     Reading input from nii2.vcrelax.in

     Current dimensions of program PWSCF are:
     Max number of different atomic species (ntypx) = 10
     Max number of k-points (npk) =  40000
     Max angular momentum in pseudopotentials (lmaxx) =  4

     --------------------------------------------
     DFT-D3 Dispersion Correction (3-body terms):
     --------------------------------------------
       Reference C6 values for interpolation: 

         atom   Coordination number   C6
         Ni         0.000          1149.49
         Ni         1.794           356.66
         Ni         6.546           257.56
         Ni         6.292           283.75
         I          0.000           703.93
         I          0.997           717.00

       Values used:

         atom   Coordination number  R0_AB[au]  C6      C8
         Ni         1.889            3.162    356.66  29885.75
         Ni         1.889            3.162    356.66  29885.75
         I          1.964            3.532    717.00  65856.00
         I          1.964            3.532    717.00  65856.00
         I          1.964            3.532    717.00  65856.00
         I          1.964            3.532    717.00  65856.00

         Molecular C6 ( Ry / a.u.^6 ) =     20916.35

     Found symmetry operation: I + (  0.5000 -0.5000  0.0000)
     This is a supercell, fractional translations are disabled

     Subspace diagonalization in iterative solution of the eigenvalue problem:
     one sub-group per band group will be used
     scalapack distributed-memory algorithm (size of sub-group:  6*  6 procs)

 
     Parallelization info
     --------------------
     sticks:   dense  smooth     PW     G-vecs:    dense   smooth      PW
     Min          94      90     24                 8294     7799    1114
     Max          95      91     25                 8302     7808    1125
     Sum        3775    3619    989               331869   312069   44823
 
     Using Slab Decomposition
 


     bravais-lattice index     =          -12
     lattice parameter (alat)  =      12.7840  a.u.
     unit-cell volume          =    1757.2626 (a.u.)^3
     number of atoms/cell      =            6
     number of atomic types    =            2
     number of electrons       =        64.00
     number of Kohn-Sham states=           38
     kinetic-energy cutoff     =     120.0000  Ry
     charge density cutoff     =     500.0000  Ry
     scf convergence threshold =      1.0E-06
     mixing beta               =       0.4000
     number of iterations used =            8  plain     mixing
     energy convergence thresh.=      1.0E-04
     force convergence thresh. =      1.0E-03
     Exchange-correlation= PBE
                           (   1   4   3   4   0   0   0)
     nstep                     =           50


     celldm(1)=  12.783997  celldm(2)=   0.579749  celldm(3)=   1.450776
     celldm(4)=   0.000000  celldm(5)=  -0.004014  celldm(6)=   0.000000

     crystal axes: (cart. coord. in units of alat)
               a(1) = (   1.000000   0.000000   0.000000 )  
               a(2) = (   0.000000   0.579749   0.000000 )  
               a(3) = (  -0.005824   0.000000   1.450764 )  

     reciprocal axes: (cart. coord. in units 2 pi/alat)
               b(1) = (  1.000000  0.000000  0.004014 )  
               b(2) = (  0.000000  1.724885  0.000000 )  
               b(3) = (  0.000000  0.000000  0.689292 )  


     PseudoPot. # 1 for Ni read from file:
     /ptmp/jojaibal/andrey/nii2-magnons/pseudo/Ni.norel.upf
     MD5 check sum: 2b0a79d100e227970886d6963e34175b
     Pseudo is Norm-conserving + core correction, Zval = 18.0
     Generated using ONCVPSP code by D. R. Hamann
     Using radial grid of 1372 points,  6 beta functions with: 
                l(1) =   0
                l(2) =   0
                l(3) =   1
                l(4) =   1
                l(5) =   2
                l(6) =   2

     PseudoPot. # 2 for I  read from file:
     /ptmp/jojaibal/andrey/nii2-magnons/pseudo/I.norel.upf
     MD5 check sum: d5cbca53f7cc673a7c5c719d79970e64
     Pseudo is Norm-conserving + core correction, Zval =  7.0
     Generated using ONCVPSP code by D. R. Hamann
     Using radial grid of 1196 points,  6 beta functions with: 
                l(1) =   0
                l(2) =   0
                l(3) =   1
                l(4) =   1
                l(5) =   2
                l(6) =   2

     atomic species   valence    mass     pseudopotential
        Ni            18.00    58.69340     Ni( 1.00)
        I              7.00   126.90447     I ( 1.00)

     Starting magnetic structure 
     atomic species   magnetization
        Ni           0.278
        I            0.100

      2 Sym. Ops. (no inversion) found



   Cartesian axes

     site n.     atom                  positions (alat units)
         1           Ni  tau(   1) = (   0.4985906   0.0000000   0.3510850  )
         2           Ni  tau(   2) = (  -0.0014094   0.2898744   0.3510850  )
         3           I   tau(   3) = (   0.2307813   0.0000000   0.7021700  )
         4           I   tau(   4) = (   0.7307813   0.2898744   0.7021700  )
         5           I   tau(   5) = (   0.7664000   0.0000000   0.0000000  )
         6           I   tau(   6) = (   0.2664000   0.2898744   0.0000000  )

     number of k points=    80  Marzari-Vanderbilt smearing, width (Ry)=  0.0015
                       cart. coord. in units 2pi/alat
        k(    1) = (   0.0000000   0.0000000   0.0000000), wk =   0.0046296
        k(    2) = (   0.0000000   0.0000000   0.1148820), wk =   0.0092593
        k(    3) = (   0.0000000   0.0000000   0.2297639), wk =   0.0092593
        k(    4) = (   0.0000000   0.0000000  -0.3446459), wk =   0.0046296
        k(    5) = (   0.0000000   0.2874809   0.0000000), wk =   0.0092593
        k(    6) = (   0.0000000   0.2874809   0.1148820), wk =   0.0185185
        k(    7) = (   0.0000000   0.2874809   0.2297639), wk =   0.0185185
        k(    8) = (   0.0000000   0.2874809  -0.3446459), wk =   0.0092593
        k(    9) = (   0.0000000   0.5749618   0.0000000), wk =   0.0092593
        k(   10) = (   0.0000000   0.5749618   0.1148820), wk =   0.0185185
        k(   11) = (   0.0000000   0.5749618   0.2297639), wk =   0.0185185
        k(   12) = (   0.0000000   0.5749618  -0.3446459), wk =   0.0092593
        k(   13) = (   0.0000000  -0.8624426   0.0000000), wk =   0.0046296
        k(   14) = (   0.0000000  -0.8624426   0.1148820), wk =   0.0092593
        k(   15) = (   0.0000000  -0.8624426   0.2297639), wk =   0.0092593
        k(   16) = (   0.0000000  -0.8624426  -0.3446459), wk =   0.0046296
        k(   17) = (   0.1666667   0.0000000   0.0006690), wk =   0.0092593
        k(   18) = (   0.1666667   0.0000000   0.1155510), wk =   0.0092593
        k(   19) = (   0.1666667   0.0000000   0.2304330), wk =   0.0092593
        k(   20) = (   0.1666667   0.0000000  -0.3439769), wk =   0.0092593
        k(   21) = (   0.1666667   0.0000000  -0.2290949), wk =   0.0092593
        k(   22) = (   0.1666667   0.0000000  -0.1142129), wk =   0.0092593
        k(   23) = (   0.1666667   0.2874809   0.0006690), wk =   0.0185185
        k(   24) = (   0.1666667   0.2874809   0.1155510), wk =   0.0185185
        k(   25) = (   0.1666667   0.2874809   0.2304330), wk =   0.0185185
        k(   26) = (   0.1666667   0.2874809  -0.3439769), wk =   0.0185185
        k(   27) = (   0.1666667   0.2874809  -0.2290949), wk =   0.0185185
        k(   28) = (   0.1666667   0.2874809  -0.1142129), wk =   0.0185185
        k(   29) = (   0.1666667   0.5749618   0.0006690), wk =   0.0185185
        k(   30) = (   0.1666667   0.5749618   0.1155510), wk =   0.0185185
        k(   31) = (   0.1666667   0.5749618   0.2304330), wk =   0.0185185
        k(   32) = (   0.1666667   0.5749618  -0.3439769), wk =   0.0185185
        k(   33) = (   0.1666667   0.5749618  -0.2290949), wk =   0.0185185
        k(   34) = (   0.1666667   0.5749618  -0.1142129), wk =   0.0185185
        k(   35) = (   0.1666667  -0.8624426   0.0006690), wk =   0.0092593
        k(   36) = (   0.1666667  -0.8624426   0.1155510), wk =   0.0092593
        k(   37) = (   0.1666667  -0.8624426   0.2304330), wk =   0.0092593
        k(   38) = (   0.1666667  -0.8624426  -0.3439769), wk =   0.0092593
        k(   39) = (   0.1666667  -0.8624426  -0.2290949), wk =   0.0092593
        k(   40) = (   0.1666667  -0.8624426  -0.1142129), wk =   0.0092593
        k(   41) = (   0.3333333   0.0000000   0.0013381), wk =   0.0092593
        k(   42) = (   0.3333333   0.0000000   0.1162201), wk =   0.0092593
        k(   43) = (   0.3333333   0.0000000   0.2311020), wk =   0.0092593
        k(   44) = (   0.3333333   0.0000000  -0.3433078), wk =   0.0092593
        k(   45) = (   0.3333333   0.0000000  -0.2284258), wk =   0.0092593
        k(   46) = (   0.3333333   0.0000000  -0.1135439), wk =   0.0092593
        k(   47) = (   0.3333333   0.2874809   0.0013381), wk =   0.0185185
        k(   48) = (   0.3333333   0.2874809   0.1162201), wk =   0.0185185
        k(   49) = (   0.3333333   0.2874809   0.2311020), wk =   0.0185185
        k(   50) = (   0.3333333   0.2874809  -0.3433078), wk =   0.0185185
        k(   51) = (   0.3333333   0.2874809  -0.2284258), wk =   0.0185185
        k(   52) = (   0.3333333   0.2874809  -0.1135439), wk =   0.0185185
        k(   53) = (   0.3333333   0.5749618   0.0013381), wk =   0.0185185
        k(   54) = (   0.3333333   0.5749618   0.1162201), wk =   0.0185185
        k(   55) = (   0.3333333   0.5749618   0.2311020), wk =   0.0185185
        k(   56) = (   0.3333333   0.5749618  -0.3433078), wk =   0.0185185
        k(   57) = (   0.3333333   0.5749618  -0.2284258), wk =   0.0185185
        k(   58) = (   0.3333333   0.5749618  -0.1135439), wk =   0.0185185
        k(   59) = (   0.3333333  -0.8624426   0.0013381), wk =   0.0092593
        k(   60) = (   0.3333333  -0.8624426   0.1162201), wk =   0.0092593
        k(   61) = (   0.3333333  -0.8624426   0.2311020), wk =   0.0092593
        k(   62) = (   0.3333333  -0.8624426  -0.3433078), wk =   0.0092593
        k(   63) = (   0.3333333  -0.8624426  -0.2284258), wk =   0.0092593
        k(   64) = (   0.3333333  -0.8624426  -0.1135439), wk =   0.0092593
        k(   65) = (  -0.5000000   0.0000000  -0.0020071), wk =   0.0046296
        k(   66) = (  -0.5000000   0.0000000   0.1128748), wk =   0.0092593
        k(   67) = (  -0.5000000   0.0000000   0.2277568), wk =   0.0092593
        k(   68) = (  -0.5000000   0.0000000  -0.3466530), wk =   0.0046296
        k(   69) = (  -0.5000000   0.2874809  -0.0020071), wk =   0.0092593
        k(   70) = (  -0.5000000   0.2874809   0.1128748), wk =   0.0185185
        k(   71) = (  -0.5000000   0.2874809   0.2277568), wk =   0.0185185
        k(   72) = (  -0.5000000   0.2874809  -0.3466530), wk =   0.0092593
        k(   73) = (  -0.5000000   0.5749618  -0.0020071), wk =   0.0092593
        k(   74) = (  -0.5000000   0.5749618   0.1128748), wk =   0.0185185
        k(   75) = (  -0.5000000   0.5749618   0.2277568), wk =   0.0185185
        k(   76) = (  -0.5000000   0.5749618  -0.3466530), wk =   0.0092593
        k(   77) = (  -0.5000000  -0.8624426  -0.0020071), wk =   0.0046296
        k(   78) = (  -0.5000000  -0.8624426   0.1128748), wk =   0.0092593
        k(   79) = (  -0.5000000  -0.8624426   0.2277568), wk =   0.0092593
        k(   80) = (  -0.5000000  -0.8624426  -0.3466530), wk =   0.0046296

     Dense  grid:   331869 G-vectors     FFT dimensions: (  96,  54, 135)

     Smooth grid:   312069 G-vectors     FFT dimensions: (  90,  54, 135)

     Estimated max dynamical RAM per process >      61.77 MB

     Estimated total dynamical RAM >       4.67 GB
     Generating pointlists ...
     new r_m :   0.1821 (alat units)  2.3286 (a.u.) for type    1
     new r_m :   0.1821 (alat units)  2.3286 (a.u.) for type    2

     Initial potential from superposition of free atoms

     starting charge   63.99925, renormalised to   64.00000
     Starting wfcs are   36 randomized atomic wfcs +    2 random wfcs

     total cpu time spent up to now is        9.7 secs

     Self-consistent Calculation

     iteration #  1     ecut=   120.00 Ry     beta= 0.40
     Davidson diagonalization with overlap
     ethr =  1.00E-02,  avg # of iterations =  4.8

     total cpu time spent up to now is       20.2 secs

     total energy              =    -773.86520635 Ry
     estimated scf accuracy    <       2.06792592 Ry

     total magnetization       =     3.51 Bohr mag/cell
     absolute magnetization    =     3.74 Bohr mag/cell

     iteration #  2     ecut=   120.00 Ry     beta= 0.40
     Davidson diagonalization with overlap
     ethr =  3.23E-03,  avg # of iterations =  2.1

     total cpu time spent up to now is       29.0 secs

     total energy              =    -773.16345001 Ry
     estimated scf accuracy    <      10.94990704 Ry

     total magnetization       =     8.00 Bohr mag/cell
     absolute magnetization    =     8.13 Bohr mag/cell

     iteration #  3     ecut=   120.00 Ry     beta= 0.40
     Davidson diagonalization with overlap
     ethr =  3.23E-03,  avg # of iterations =  2.1

     total cpu time spent up to now is       37.9 secs

     total energy              =    -774.28827901 Ry
     estimated scf accuracy    <       2.29717077 Ry

     total magnetization       =     2.38 Bohr mag/cell
     absolute magnetization    =     2.71 Bohr mag/cell

     iteration #  4     ecut=   120.00 Ry     beta= 0.40
     Davidson diagonalization with overlap
     ethr =  3.23E-03,  avg # of iterations =  1.0
     Minimization algorithm failed to find Fermi energy: reverting to bisection
     Possible cause: smearing is larger than the electronic band-gap.

     total cpu time spent up to now is       44.9 secs

     total energy              =    -774.45958933 Ry
     estimated scf accuracy    <       0.68140895 Ry

     total magnetization       =     4.00 Bohr mag/cell
     absolute magnetization    =     4.16 Bohr mag/cell

     iteration #  5     ecut=   120.00 Ry     beta= 0.40
     Davidson diagonalization with overlap
     ethr =  1.06E-03,  avg # of iterations =  1.1

     total cpu time spent up to now is       51.9 secs

     total energy              =    -774.46598610 Ry
     estimated scf accuracy    <       0.22359111 Ry

     total magnetization       =     3.89 Bohr mag/cell
     absolute magnetization    =     4.01 Bohr mag/cell

     iteration #  6     ecut=   120.00 Ry     beta= 0.40
     Davidson diagonalization with overlap
     ethr =  3.49E-04,  avg # of iterations =  1.1

     total cpu time spent up to now is       58.9 secs

     total energy              =    -774.45280146 Ry
     estimated scf accuracy    <       0.54565593 Ry

     total magnetization       =     3.62 Bohr mag/cell
     absolute magnetization    =     3.74 Bohr mag/cell

     iteration #  7     ecut=   120.00 Ry     beta= 0.40
     Davidson diagonalization with overlap
     ethr =  3.49E-04,  avg # of iterations =  1.0

     total cpu time spent up to now is       65.9 secs

     total energy              =    -774.46971536 Ry
     estimated scf accuracy    <       0.03638120 Ry

     total magnetization       =     3.63 Bohr mag/cell
     absolute magnetization    =     3.75 Bohr mag/cell

     iteration #  8     ecut=   120.00 Ry     beta= 0.40
     Davidson diagonalization with overlap
     ethr =  5.68E-05,  avg # of iterations =  1.9

     total cpu time spent up to now is       73.7 secs

     total energy              =    -774.47100281 Ry
     estimated scf accuracy    <       0.02463644 Ry

     total magnetization       =     3.62 Bohr mag/cell
     absolute magnetization    =     3.74 Bohr mag/cell

     iteration #  9     ecut=   120.00 Ry     beta= 0.40
     Davidson diagonalization with overlap
     ethr =  3.85E-05,  avg # of iterations =  1.0

     total cpu time spent up to now is       80.6 secs

     total energy              =    -774.47120743 Ry
     estimated scf accuracy    <       0.01144032 Ry

     total magnetization       =     3.62 Bohr mag/cell
     absolute magnetization    =     3.74 Bohr mag/cell

     iteration # 10     ecut=   120.00 Ry     beta= 0.40
     Davidson diagonalization with overlap
     ethr =  1.79E-05,  avg # of iterations =  1.9

     total cpu time spent up to now is       88.6 secs

     total energy              =    -774.47112124 Ry
     estimated scf accuracy    <       0.00499592 Ry

     total magnetization       =     3.62 Bohr mag/cell
     absolute magnetization    =     3.74 Bohr mag/cell

     iteration # 11     ecut=   120.00 Ry     beta= 0.40
     Davidson diagonalization with overlap
     ethr =  7.81E-06,  avg # of iterations =  2.4

     total cpu time spent up to now is       97.0 secs

     total energy              =    -774.47124086 Ry
     estimated scf accuracy    <       0.00062409 Ry

     total magnetization       =     3.63 Bohr mag/cell
     absolute magnetization    =     3.75 Bohr mag/cell

     iteration # 12     ecut=   120.00 Ry     beta= 0.40
     Davidson diagonalization with overlap
     ethr =  9.75E-07,  avg # of iterations =  3.3

     total cpu time spent up to now is      106.2 secs

     total energy              =    -774.47130167 Ry
     estimated scf accuracy    <       0.00005480 Ry

     total magnetization       =     3.62 Bohr mag/cell
     absolute magnetization    =     3.74 Bohr mag/cell

     iteration # 13     ecut=   120.00 Ry     beta= 0.40
     Davidson diagonalization with overlap
     ethr =  8.56E-08,  avg # of iterations =  1.6

     total cpu time spent up to now is      114.0 secs

     total energy              =    -774.47130941 Ry
     estimated scf accuracy    <       0.00005288 Ry

     total magnetization       =     3.62 Bohr mag/cell
     absolute magnetization    =     3.74 Bohr mag/cell

     iteration # 14     ecut=   120.00 Ry     beta= 0.40
     Davidson diagonalization with overlap
     ethr =  8.26E-08,  avg # of iterations =  1.0

     total cpu time spent up to now is      120.9 secs

     total energy              =    -774.47131138 Ry
     estimated scf accuracy    <       0.00000330 Ry

     total magnetization       =     3.62 Bohr mag/cell
     absolute magnetization    =     3.74 Bohr mag/cell

     iteration # 15     ecut=   120.00 Ry     beta= 0.40
     Davidson diagonalization with overlap
     ethr =  5.15E-09,  avg # of iterations =  2.3

     total cpu time spent up to now is      129.3 secs

     total energy              =    -774.47131216 Ry
     estimated scf accuracy    <       0.00000120 Ry

     total magnetization       =     3.62 Bohr mag/cell
     absolute magnetization    =     3.74 Bohr mag/cell

     iteration # 16     ecut=   120.00 Ry     beta= 0.40
     Davidson diagonalization with overlap
     ethr =  1.88E-09,  avg # of iterations =  1.8

     total cpu time spent up to now is      137.1 secs

     total energy              =    -774.47131253 Ry
     estimated scf accuracy    <       0.00000167 Ry

     total magnetization       =     3.62 Bohr mag/cell
     absolute magnetization    =     3.74 Bohr mag/cell

     iteration # 17     ecut=   120.00 Ry     beta= 0.40
     Davidson diagonalization with overlap
     ethr =  1.88E-09,  avg # of iterations =  1.9
 
     Magnetic moment per site  (integrated on atomic sphere of radius R)
     atom   1 (R=0.182)  charge= 16.8515  magn=  1.2346
     atom   2 (R=0.182)  charge= 16.8505  magn=  1.2355
     atom   3 (R=0.182)  charge=  4.6958  magn=  0.2174
     atom   4 (R=0.182)  charge=  4.6958  magn=  0.2174
     atom   5 (R=0.182)  charge=  4.6957  magn=  0.2174
     atom   6 (R=0.182)  charge=  4.6957  magn=  0.2174

     total cpu time spent up to now is      145.4 secs

     End of self-consistent calculation

     Number of k-points >= 100: set verbosity='high' to print the bands.

     the Fermi energy is     2.2953 ev

!    total energy              =    -774.47131261 Ry
     estimated scf accuracy    <       0.00000053 Ry
     smearing contrib. (-TS)   =       0.00000194 Ry
     internal energy E=F+TS    =    -774.47131455 Ry

     The total energy is F=E-TS. E is the sum of the following terms:
     one-electron contribution =    -900.73898061 Ry
     hartree contribution      =     463.60485621 Ry
     xc contribution           =    -116.96126620 Ry
     ewald contribution        =    -220.30190790 Ry
     DFT-D3 Dispersion         =      -0.07401604 Ry

     total magnetization       =     3.62 Bohr mag/cell
     absolute magnetization    =     3.74 Bohr mag/cell

     convergence has been achieved in  17 iterations

     Forces acting on atoms (cartesian axes, Ry/au):

     atom    1 type  1   force =     0.00000068    0.00000000    0.00000227
     atom    2 type  1   force =    -0.00000246    0.00000000    0.00000281
     atom    3 type  2   force =     0.00860850    0.00000000   -0.06445834
     atom    4 type  2   force =     0.00860981    0.00000000   -0.06445225
     atom    5 type  2   force =    -0.00860707    0.00000000    0.06445529
     atom    6 type  2   force =    -0.00860947    0.00000000    0.06445021

     Total force =     0.130053     Total SCF correction =     0.000392

     BFGS Geometry Optimization
     Energy error            =      0.0E+00 Ry
     Gradient error          =      6.4E-02 Ry/Bohr

     number of scf cycles    =   1
     number of bfgs steps    =   0

     energy             new  =    -774.4713126107 Ry

     new trust radius        =       0.0650306347 bohr
     new conv_thr            =       0.0000010000 Ry


ATOMIC_POSITIONS (crystal)
Ni            0.5000000542        0.0000000000        0.2420001224
Ni           -0.0000001916        0.5000000000        0.2420001513
I             0.2342531408        0.0000000000        0.4805245140
I             0.7342532447        0.5000000000        0.4805248424
I             0.7657469707        0.0000000000        0.0034753218
I             0.2657467812        0.5000000000        0.0034750481



     Writing output data file ./tmp/monoclinic.save/
     NEW-OLD atomic charge density approx. for the potential
     Generating pointlists ...

     total cpu time spent up to now is      152.6 secs

     Self-consistent Calculation

     iteration #  1     ecut=   120.00 Ry     beta= 0.40
     Davidson diagonalization with overlap
     c_bands:  1 eigenvalues not converged
     ethr =  1.00E-06,  avg # of iterations =  7.3

     total cpu time spent up to now is      171.9 secs

     total energy              =    -774.48721268 Ry
     estimated scf accuracy    <       0.00215067 Ry

     total magnetization       =     3.62 Bohr mag/cell
     absolute magnetization    =     3.74 Bohr mag/cell

     iteration #  2     ecut=   120.00 Ry     beta= 0.40
     Davidson diagonalization with overlap
     c_bands:  1 eigenvalues not converged
     ethr =  3.36E-06,  avg # of iterations =  3.7

     total cpu time spent up to now is      182.5 secs

     total energy              =    -774.48382335 Ry
     estimated scf accuracy    <       0.23098796 Ry

     total magnetization       =     3.49 Bohr mag/cell
     absolute magnetization    =     3.62 Bohr mag/cell

     iteration #  3     ecut=   120.00 Ry     beta= 0.40
     Davidson diagonalization with overlap
     ethr =  3.36E-06,  avg # of iterations =  2.1

     total cpu time spent up to now is      191.3 secs

     total energy              =    -774.48783335 Ry
     estimated scf accuracy    <       0.00729841 Ry

     total magnetization       =     3.66 Bohr mag/cell
     absolute magnetization    =     3.78 Bohr mag/cell

     iteration #  4     ecut=   120.00 Ry     beta= 0.40
     Davidson diagonalization with overlap
     ethr =  3.36E-06,  avg # of iterations =  1.1

     total cpu time spent up to now is      198.3 secs

     total energy              =    -774.48822504 Ry
     estimated scf accuracy    <       0.00039323 Ry

     total magnetization       =     3.62 Bohr mag/cell
     absolute magnetization    =     3.74 Bohr mag/cell

     iteration #  5     ecut=   120.00 Ry     beta= 0.40
     Davidson diagonalization with overlap
     ethr =  6.14E-07,  avg # of iterations =  1.0

     total cpu time spent up to now is      205.2 secs

     total energy              =    -774.48824034 Ry
     estimated scf accuracy    <       0.00003296 Ry

     total magnetization       =     3.61 Bohr mag/cell
     absolute magnetization    =     3.73 Bohr mag/cell

     iteration #  6     ecut=   120.00 Ry     beta= 0.40
     Davidson diagonalization with overlap
     ethr =  5.15E-08,  avg # of iterations =  1.5

     total cpu time spent up to now is      212.6 secs

     total energy              =    -774.48824489 Ry
     estimated scf accuracy    <       0.00002173 Ry

     total magnetization       =     3.61 Bohr mag/cell
     absolute magnetization    =     3.73 Bohr mag/cell

     iteration #  7     ecut=   120.00 Ry     beta= 0.40
     Davidson diagonalization with overlap
     ethr =  3.39E-08,  avg # of iterations =  1.0

     total cpu time spent up to now is      219.5 secs

     total energy              =    -774.48824557 Ry
     estimated scf accuracy    <       0.00001863 Ry

     total magnetization       =     3.61 Bohr mag/cell
     absolute magnetization    =     3.73 Bohr mag/cell

     iteration #  8     ecut=   120.00 Ry     beta= 0.40
     Davidson diagonalization with overlap
     ethr =  2.91E-08,  avg # of iterations =  1.0

     total cpu time spent up to now is      226.4 secs

     total energy              =    -774.48824571 Ry
     estimated scf accuracy    <       0.00000650 Ry

     total magnetization       =     3.61 Bohr mag/cell
     absolute magnetization    =     3.73 Bohr mag/cell

     iteration #  9     ecut=   120.00 Ry     beta= 0.40
     Davidson diagonalization with overlap
     ethr =  1.02E-08,  avg # of iterations =  1.0

     total cpu time spent up to now is      233.2 secs

     total energy              =    -774.48824604 Ry
     estimated scf accuracy    <       0.00000297 Ry

     total magnetization       =     3.61 Bohr mag/cell
     absolute magnetization    =     3.73 Bohr mag/cell

     iteration # 10     ecut=   120.00 Ry     beta= 0.40
     Davidson diagonalization with overlap
     ethr =  4.63E-09,  avg # of iterations =  1.0
 
     Magnetic moment per site  (integrated on atomic sphere of radius R)
     atom   1 (R=0.182)  charge= 16.8618  magn=  1.2432
     atom   2 (R=0.182)  charge= 16.8619  magn=  1.2430
     atom   3 (R=0.182)  charge=  4.6997  magn=  0.2119
     atom   4 (R=0.182)  charge=  4.6997  magn=  0.2120
     atom   5 (R=0.182)  charge=  4.6997  magn=  0.2119
     atom   6 (R=0.182)  charge=  4.6997  magn=  0.2120

     total cpu time spent up to now is      240.1 secs

     End of self-consistent calculation

     Number of k-points >= 100: set verbosity='high' to print the bands.

     the Fermi energy is     2.3056 ev

!    total energy              =    -774.48824592 Ry
     estimated scf accuracy    <       0.00000032 Ry
     smearing contrib. (-TS)   =      -0.00003205 Ry
     internal energy E=F+TS    =    -774.48821387 Ry

     The total energy is F=E-TS. E is the sum of the following terms:
     one-electron contribution =    -909.42472921 Ry
     hartree contribution      =     467.90613677 Ry
     xc contribution           =    -116.97426512 Ry
     ewald contribution        =    -215.92142140 Ry
     DFT-D3 Dispersion         =      -0.07393490 Ry

     total magnetization       =     3.61 Bohr mag/cell
     absolute magnetization    =     3.73 Bohr mag/cell

     convergence has been achieved in  10 iterations

     Forces acting on atoms (cartesian axes, Ry/au):

     atom    1 type  1   force =     0.00000490    0.00000000   -0.00000738
     atom    2 type  1   force =    -0.00000041    0.00000000    0.00000251
     atom    3 type  2   force =     0.00839046    0.00000000   -0.06457294
     atom    4 type  2   force =     0.00838944    0.00000000   -0.06457789
     atom    5 type  2   force =    -0.00839275    0.00000000    0.06457666
     atom    6 type  2   force =    -0.00839164    0.00000000    0.06457905

     Total force =     0.130239     Total SCF correction =     0.000808
     Energy error            =      1.7E-02 Ry
     Gradient error          =      6.5E-02 Ry/Bohr

     number of scf cycles    =   2
     number of bfgs steps    =   1

     energy             old  =    -774.4713126107 Ry
     energy             new  =    -774.4882459211 Ry

     CASE: energy            _new < energy            _old


     WARNING: bfgs curvature condition failed, Theta= 0.799
     new trust radius        =       0.0715336982 bohr
     new conv_thr            =       0.0000006458 Ry


ATOMIC_POSITIONS (crystal)
Ni            0.5000001035        0.0000000000        0.2420002737
Ni           -0.0000004075        0.5000000000        0.2420003183
I             0.2349721689        0.0000000000        0.4767015321
I             0.7349723929        0.5000000000        0.4767022407
I             0.7650280746        0.0000000000        0.0072981114
I             0.2650276676        0.5000000000        0.0072975237



     Writing output data file ./tmp/monoclinic.save/
     NEW-OLD atomic charge density approx. for the potential
     Generating pointlists ...
     new r_m :   0.1783 (alat units)  2.2798 (a.u.) for type    1
     new r_m :   0.1783 (alat units)  2.2798 (a.u.) for type    2

     total cpu time spent up to now is      247.4 secs

     Self-consistent Calculation

     iteration #  1     ecut=   120.00 Ry     beta= 0.40
     Davidson diagonalization with overlap
     c_bands:  1 eigenvalues not converged
     ethr =  1.00E-06,  avg # of iterations =  7.4

     total cpu time spent up to now is      267.0 secs

     total energy              =    -774.50644616 Ry
     estimated scf accuracy    <       0.00097652 Ry

     total magnetization       =     3.62 Bohr mag/cell
     absolute magnetization    =     3.73 Bohr mag/cell

     iteration #  2     ecut=   120.00 Ry     beta= 0.40
     Davidson diagonalization with overlap
     ethr =  1.53E-06,  avg # of iterations =  3.2

     total cpu time spent up to now is      277.4 secs

     total energy              =    -774.50504352 Ry
     estimated scf accuracy    <       0.05892572 Ry

     total magnetization       =     3.86 Bohr mag/cell
     absolute magnetization    =     3.97 Bohr mag/cell

     iteration #  3     ecut=   120.00 Ry     beta= 0.40
     Davidson diagonalization with overlap
     ethr =  1.53E-06,  avg # of iterations =  2.1

     total cpu time spent up to now is      286.1 secs

     total energy              =    -774.50640275 Ry
     estimated scf accuracy    <       0.02226440 Ry

     total magnetization       =     3.61 Bohr mag/cell
     absolute magnetization    =     3.73 Bohr mag/cell

     iteration #  4     ecut=   120.00 Ry     beta= 0.40
     Davidson diagonalization with overlap
     ethr =  1.53E-06,  avg # of iterations =  1.3

     total cpu time spent up to now is      293.3 secs

     total energy              =    -774.50682525 Ry
     estimated scf accuracy    <       0.00244044 Ry

     total magnetization       =     3.61 Bohr mag/cell
     absolute magnetization    =     3.73 Bohr mag/cell

     iteration #  5     ecut=   120.00 Ry     beta= 0.40
     Davidson diagonalization with overlap
     ethr =  1.53E-06,  avg # of iterations =  1.0

     total cpu time spent up to now is      300.2 secs

     total energy              =    -774.50686909 Ry
     estimated scf accuracy    <       0.00001130 Ry

     total magnetization       =     3.61 Bohr mag/cell
     absolute magnetization    =     3.73 Bohr mag/cell

     iteration #  6     ecut=   120.00 Ry     beta= 0.40
     Davidson diagonalization with overlap
     ethr =  1.77E-08,  avg # of iterations =  2.0

     total cpu time spent up to now is      308.5 secs

     total energy              =    -774.50687076 Ry
     estimated scf accuracy    <       0.00002674 Ry

     total magnetization       =     3.61 Bohr mag/cell
     absolute magnetization    =     3.73 Bohr mag/cell

     iteration #  7     ecut=   120.00 Ry     beta= 0.40
     Davidson diagonalization with overlap
     ethr =  1.77E-08,  avg # of iterations =  1.0

     total cpu time spent up to now is      315.5 secs

     total energy              =    -774.50687091 Ry
     estimated scf accuracy    <       0.00001827 Ry

     total magnetization       =     3.61 Bohr mag/cell
     absolute magnetization    =     3.73 Bohr mag/cell

     iteration #  8     ecut=   120.00 Ry     beta= 0.40
     Davidson diagonalization with overlap
     ethr =  1.77E-08,  avg # of iterations =  1.0

     total cpu time spent up to now is      322.4 secs

     total energy              =    -774.50687150 Ry
     estimated scf accuracy    <       0.00000592 Ry

     total magnetization       =     3.61 Bohr mag/cell
     absolute magnetization    =     3.73 Bohr mag/cell

     iteration #  9     ecut=   120.00 Ry     beta= 0.40
     Davidson diagonalization with overlap
     ethr =  9.26E-09,  avg # of iterations =  1.0

     total cpu time spent up to now is      329.4 secs

     total energy              =    -774.50687162 Ry
     estimated scf accuracy    <       0.00000182 Ry

     total magnetization       =     3.61 Bohr mag/cell
     absolute magnetization    =     3.73 Bohr mag/cell

     iteration # 10     ecut=   120.00 Ry     beta= 0.40
     Davidson diagonalization with overlap
     ethr =  2.84E-09,  avg # of iterations =  1.0

     total cpu time spent up to now is      336.3 secs

     total energy              =    -774.50687162 Ry
     estimated scf accuracy    <       0.00000074 Ry

     total magnetization       =     3.61 Bohr mag/cell
     absolute magnetization    =     3.73 Bohr mag/cell

     iteration # 11     ecut=   120.00 Ry     beta= 0.40
     Davidson diagonalization with overlap
     ethr =  1.15E-09,  avg # of iterations =  1.0
 
     Magnetic moment per site  (integrated on atomic sphere of radius R)
     atom   1 (R=0.178)  charge= 16.8084  magn=  1.2507
     atom   2 (R=0.178)  charge= 16.8083  magn=  1.2508
     atom   3 (R=0.178)  charge=  4.5494  magn=  0.2011
     atom   4 (R=0.178)  charge=  4.5495  magn=  0.2010
     atom   5 (R=0.178)  charge=  4.5494  magn=  0.2010
     atom   6 (R=0.178)  charge=  4.5494  magn=  0.2011

     total cpu time spent up to now is      343.2 secs

     End of self-consistent calculation

     Number of k-points >= 100: set verbosity='high' to print the bands.

     the Fermi energy is     2.3165 ev

!    total energy              =    -774.50687160 Ry
     estimated scf accuracy    <       0.00000007 Ry
     smearing contrib. (-TS)   =      -0.00006184 Ry
     internal energy E=F+TS    =    -774.50680976 Ry

     The total energy is F=E-TS. E is the sum of the following terms:
     one-electron contribution =    -919.21753777 Ry
     hartree contribution      =     472.77056920 Ry
     xc contribution           =    -116.99099945 Ry
     ewald contribution        =    -210.99494767 Ry
     DFT-D3 Dispersion         =      -0.07389407 Ry

     total magnetization       =     3.61 Bohr mag/cell
     absolute magnetization    =     3.73 Bohr mag/cell

     convergence has been achieved in  11 iterations

     Forces acting on atoms (cartesian axes, Ry/au):

     atom    1 type  1   force =     0.00000083    0.00000000    0.00000014
     atom    2 type  1   force =    -0.00000003    0.00000000   -0.00000046
     atom    3 type  2   force =     0.00803827    0.00000000   -0.06452892
     atom    4 type  2   force =     0.00803752    0.00000000   -0.06452586
     atom    5 type  2   force =    -0.00803947    0.00000000    0.06452873
     atom    6 type  2   force =    -0.00803712    0.00000000    0.06452636

     Total force =     0.130052     Total SCF correction =     0.000305
     Energy error            =      1.9E-02 Ry
     Gradient error          =      6.5E-02 Ry/Bohr

     number of scf cycles    =   3
     number of bfgs steps    =   2

     energy             old  =    -774.4882459211 Ry
     energy             new  =    -774.5068716027 Ry

     CASE: energy            _new < energy            _old

     new trust radius        =       0.1073005473 bohr
     new conv_thr            =       0.0000006453 Ry


ATOMIC_POSITIONS (crystal)
Ni            0.4999997111        0.0000000000        0.2420010988
Ni           -0.0000006887        0.5000000000        0.2420003328
I             0.2360113505        0.0000000000        0.4709635003
I             0.7360117891        0.5000000000        0.4709654171
I             0.7639892157        0.0000000000        0.0130355440
I             0.2639886223        0.5000000000        0.0130341069



     Writing output data file ./tmp/monoclinic.save/
     NEW-OLD atomic charge density approx. for the potential
     Generating pointlists ...
     new r_m :   0.1754 (alat units)  2.2419 (a.u.) for type    1
     new r_m :   0.1754 (alat units)  2.2419 (a.u.) for type    2

     total cpu time spent up to now is      350.1 secs

     Self-consistent Calculation

     iteration #  1     ecut=   120.00 Ry     beta= 0.40
     Davidson diagonalization with overlap
     ethr =  1.00E-06,  avg # of iterations =  8.1

     total cpu time spent up to now is      371.4 secs

     total energy              =    -774.53399043 Ry
     estimated scf accuracy    <       0.00168004 Ry

     total magnetization       =     3.62 Bohr mag/cell
     absolute magnetization    =     3.73 Bohr mag/cell

     iteration #  2     ecut=   120.00 Ry     beta= 0.40
     Davidson diagonalization with overlap
     ethr =  2.63E-06,  avg # of iterations =  2.9

     total cpu time spent up to now is      381.1 secs

     total energy              =    -774.53254918 Ry
     estimated scf accuracy    <       0.06369552 Ry

     total magnetization       =     3.90 Bohr mag/cell
     absolute magnetization    =     4.00 Bohr mag/cell

     iteration #  3     ecut=   120.00 Ry     beta= 0.40
     Davidson diagonalization with overlap
     ethr =  2.63E-06,  avg # of iterations =  2.0

     total cpu time spent up to now is      389.7 secs

     total energy              =    -774.53403859 Ry
     estimated scf accuracy    <       0.02332873 Ry

     total magnetization       =     3.65 Bohr mag/cell
     absolute magnetization    =     3.76 Bohr mag/cell

     iteration #  4     ecut=   120.00 Ry     beta= 0.40
     Davidson diagonalization with overlap
     ethr =  2.63E-06,  avg # of iterations =  1.2

     total cpu time spent up to now is      396.8 secs

     total energy              =    -774.53453881 Ry
     estimated scf accuracy    <       0.00803135 Ry

     total magnetization       =     3.62 Bohr mag/cell
     absolute magnetization    =     3.73 Bohr mag/cell

     iteration #  5     ecut=   120.00 Ry     beta= 0.40
     Davidson diagonalization with overlap
     ethr =  2.63E-06,  avg # of iterations =  1.0

     total cpu time spent up to now is      403.6 secs

     total energy              =    -774.53467823 Ry
     estimated scf accuracy    <       0.00019073 Ry

     total magnetization       =     3.67 Bohr mag/cell
     absolute magnetization    =     3.78 Bohr mag/cell

     iteration #  6     ecut=   120.00 Ry     beta= 0.40
     Davidson diagonalization with overlap
     ethr =  2.98E-07,  avg # of iterations =  1.0

     total cpu time spent up to now is      410.5 secs

     total energy              =    -774.53468109 Ry
     estimated scf accuracy    <       0.00006369 Ry

     total magnetization       =     3.67 Bohr mag/cell
     absolute magnetization    =     3.78 Bohr mag/cell

     iteration #  7     ecut=   120.00 Ry     beta= 0.40
     Davidson diagonalization with overlap
     ethr =  9.95E-08,  avg # of iterations =  1.0

     total cpu time spent up to now is      417.5 secs

     total energy              =    -774.53468203 Ry
     estimated scf accuracy    <       0.00001698 Ry

     total magnetization       =     3.67 Bohr mag/cell
     absolute magnetization    =     3.78 Bohr mag/cell

     iteration #  8     ecut=   120.00 Ry     beta= 0.40
     Davidson diagonalization with overlap
     ethr =  2.65E-08,  avg # of iterations =  1.0

     total cpu time spent up to now is      424.3 secs

     total energy              =    -774.53468354 Ry
     estimated scf accuracy    <       0.00000793 Ry

     total magnetization       =     3.67 Bohr mag/cell
     absolute magnetization    =     3.78 Bohr mag/cell

     iteration #  9     ecut=   120.00 Ry     beta= 0.40
     Davidson diagonalization with overlap
     ethr =  1.24E-08,  avg # of iterations =  1.0

     total cpu time spent up to now is      431.2 secs

     total energy              =    -774.53468429 Ry
     estimated scf accuracy    <       0.00000223 Ry

     total magnetization       =     3.67 Bohr mag/cell
     absolute magnetization    =     3.78 Bohr mag/cell

     iteration # 10     ecut=   120.00 Ry     beta= 0.40
     Davidson diagonalization with overlap
     ethr =  3.48E-09,  avg # of iterations =  1.6

     total cpu time spent up to now is      438.9 secs

     total energy              =    -774.53468450 Ry
     estimated scf accuracy    <       0.00000161 Ry

     total magnetization       =     3.67 Bohr mag/cell
     absolute magnetization    =     3.78 Bohr mag/cell

     iteration # 11     ecut=   120.00 Ry     beta= 0.40
     Davidson diagonalization with overlap
     ethr =  2.51E-09,  avg # of iterations =  1.0
 
     Magnetic moment per site  (integrated on atomic sphere of radius R)
     atom   1 (R=0.175)  charge= 16.7732  magn=  1.2633
     atom   2 (R=0.175)  charge= 16.7738  magn=  1.2627
     atom   3 (R=0.175)  charge=  4.4313  magn=  0.2004
     atom   4 (R=0.175)  charge=  4.4311  magn=  0.2004
     atom   5 (R=0.175)  charge=  4.4314  magn=  0.2004
     atom   6 (R=0.175)  charge=  4.4313  magn=  0.2004

     total cpu time spent up to now is      445.8 secs

     End of self-consistent calculation

     Number of k-points >= 100: set verbosity='high' to print the bands.

     the Fermi energy is     2.3266 ev

!    total energy              =    -774.53468437 Ry
     estimated scf accuracy    <       0.00000035 Ry
     smearing contrib. (-TS)   =      -0.00008661 Ry
     internal energy E=F+TS    =    -774.53459776 Ry

     The total energy is F=E-TS. E is the sum of the following terms:
     one-electron contribution =    -934.31709361 Ry
     hartree contribution      =     480.26780456 Ry
     xc contribution           =    -117.01896662 Ry
     ewald contribution        =    -203.39241186 Ry
     DFT-D3 Dispersion         =      -0.07393022 Ry

     total magnetization       =     3.67 Bohr mag/cell
     absolute magnetization    =     3.78 Bohr mag/cell

     convergence has been achieved in  11 iterations

     Forces acting on atoms (cartesian axes, Ry/au):

     atom    1 type  1   force =     0.00000419    0.00000000    0.00000109
     atom    2 type  1   force =    -0.00000371    0.00000000   -0.00000013
     atom    3 type  2   force =     0.00718682    0.00000000   -0.06412519
     atom    4 type  2   force =     0.00718852    0.00000000   -0.06413452
     atom    5 type  2   force =    -0.00718679    0.00000000    0.06412817
     atom    6 type  2   force =    -0.00718904    0.00000000    0.06413058

     Total force =     0.129062     Total SCF correction =     0.000612
     Energy error            =      2.8E-02 Ry
     Gradient error          =      6.4E-02 Ry/Bohr

     number of scf cycles    =   4
     number of bfgs steps    =   3

     energy             old  =    -774.5068716027 Ry
     energy             new  =    -774.5346843681 Ry

     CASE: energy            _new < energy            _old

     new trust radius        =       0.1609508210 bohr
     new conv_thr            =       0.0000006413 Ry


ATOMIC_POSITIONS (crystal)
Ni            0.4999995355        0.0000000000        0.2420023899
Ni           -0.0000015428        0.5000000000        0.2420003903
I             0.2374794431        0.0000000000        0.4623486332
I             0.7374804820        0.5000000000        0.4623513416
I             0.7625217471        0.0000000000        0.0216497787
I             0.2625203351        0.5000000000        0.0216474663



     Writing output data file ./tmp/monoclinic.save/
     NEW-OLD atomic charge density approx. for the potential
     Generating pointlists ...
     new r_m :   0.1710 (alat units)  2.1856 (a.u.) for type    1
     new r_m :   0.1710 (alat units)  2.1856 (a.u.) for type    2

     total cpu time spent up to now is      453.0 secs

     Self-consistent Calculation

     iteration #  1     ecut=   120.00 Ry     beta= 0.40
     Davidson diagonalization with overlap
     c_bands:  1 eigenvalues not converged
     c_bands:  1 eigenvalues not converged
     ethr =  1.00E-06,  avg # of iterations =  9.1

     total cpu time spent up to now is      476.3 secs

     total energy              =    -774.57459757 Ry
     estimated scf accuracy    <       0.00298821 Ry

     total magnetization       =     3.74 Bohr mag/cell
     absolute magnetization    =     3.85 Bohr mag/cell

     iteration #  2     ecut=   120.00 Ry     beta= 0.40
     Davidson diagonalization with overlap
     ethr =  4.67E-06,  avg # of iterations =  2.6

     total cpu time spent up to now is      485.9 secs

     total energy              =    -774.57320910 Ry
     estimated scf accuracy    <       0.06726171 Ry

     total magnetization       =     3.88 Bohr mag/cell
     absolute magnetization    =     3.98 Bohr mag/cell

     iteration #  3     ecut=   120.00 Ry     beta= 0.40
     Davidson diagonalization with overlap
     ethr =  4.67E-06,  avg # of iterations =  2.1

     total cpu time spent up to now is      494.4 secs

     total energy              =    -774.57484900 Ry
     estimated scf accuracy    <       0.01206352 Ry

     total magnetization       =     3.79 Bohr mag/cell
     absolute magnetization    =     3.89 Bohr mag/cell

     iteration #  4     ecut=   120.00 Ry     beta= 0.40
     Davidson diagonalization with overlap
     ethr =  4.67E-06,  avg # of iterations =  1.6

     total cpu time spent up to now is      502.1 secs

     total energy              =    -774.57505576 Ry
     estimated scf accuracy    <       0.02445035 Ry

     total magnetization       =     3.64 Bohr mag/cell
     absolute magnetization    =     3.75 Bohr mag/cell

     iteration #  5     ecut=   120.00 Ry     beta= 0.40
     Davidson diagonalization with overlap
     ethr =  4.67E-06,  avg # of iterations =  1.0

     total cpu time spent up to now is      509.3 secs

     total energy              =    -774.57562029 Ry
     estimated scf accuracy    <       0.00117269 Ry

     total magnetization       =     3.83 Bohr mag/cell
     absolute magnetization    =     3.94 Bohr mag/cell

     iteration #  6     ecut=   120.00 Ry     beta= 0.40
     Davidson diagonalization with overlap
     ethr =  1.83E-06,  avg # of iterations =  1.0

     total cpu time spent up to now is      516.3 secs

     total energy              =    -774.57566407 Ry
     estimated scf accuracy    <       0.00098442 Ry

     total magnetization       =     3.81 Bohr mag/cell
     absolute magnetization    =     3.92 Bohr mag/cell

     iteration #  7     ecut=   120.00 Ry     beta= 0.40
     Davidson diagonalization with overlap
     ethr =  1.54E-06,  avg # of iterations =  1.0

     total cpu time spent up to now is      523.2 secs

     total energy              =    -774.57567789 Ry
     estimated scf accuracy    <       0.00021696 Ry

     total magnetization       =     3.84 Bohr mag/cell
     absolute magnetization    =     3.95 Bohr mag/cell

     iteration #  8     ecut=   120.00 Ry     beta= 0.40
     Davidson diagonalization with overlap
     ethr =  3.39E-07,  avg # of iterations =  1.0

     total cpu time spent up to now is      530.0 secs

     total energy              =    -774.57568636 Ry
     estimated scf accuracy    <       0.00008900 Ry

     total magnetization       =     3.84 Bohr mag/cell
     absolute magnetization    =     3.95 Bohr mag/cell

     iteration #  9     ecut=   120.00 Ry     beta= 0.40
     Davidson diagonalization with overlap
     ethr =  1.39E-07,  avg # of iterations =  1.0

     total cpu time spent up to now is      537.0 secs

     total energy              =    -774.57568871 Ry
     estimated scf accuracy    <       0.00005259 Ry

     total magnetization       =     3.85 Bohr mag/cell
     absolute magnetization    =     3.95 Bohr mag/cell

     iteration # 10     ecut=   120.00 Ry     beta= 0.40
     Davidson diagonalization with overlap
     ethr =  8.22E-08,  avg # of iterations =  1.0

     total cpu time spent up to now is      543.9 secs

     total energy              =    -774.57569174 Ry
     estimated scf accuracy    <       0.00000705 Ry

     total magnetization       =     3.85 Bohr mag/cell
     absolute magnetization    =     3.96 Bohr mag/cell

     iteration # 11     ecut=   120.00 Ry     beta= 0.40
     Davidson diagonalization with overlap
     ethr =  1.10E-08,  avg # of iterations =  2.0

     total cpu time spent up to now is      552.3 secs

     total energy              =    -774.57569361 Ry
     estimated scf accuracy    <       0.00000065 Ry

     total magnetization       =     3.86 Bohr mag/cell
     absolute magnetization    =     3.97 Bohr mag/cell

     iteration # 12     ecut=   120.00 Ry     beta= 0.40
     Davidson diagonalization with overlap
     ethr =  1.02E-09,  avg # of iterations =  2.5
 
     Magnetic moment per site  (integrated on atomic sphere of radius R)
     atom   1 (R=0.171)  charge= 16.7176  magn=  1.2850
     atom   2 (R=0.171)  charge= 16.7175  magn=  1.2852
     atom   3 (R=0.171)  charge=  4.2500  magn=  0.2151
     atom   4 (R=0.171)  charge=  4.2500  magn=  0.2151
     atom   5 (R=0.171)  charge=  4.2497  magn=  0.2151
     atom   6 (R=0.171)  charge=  4.2497  magn=  0.2151

     total cpu time spent up to now is      561.9 secs

     End of self-consistent calculation

     Number of k-points >= 100: set verbosity='high' to print the bands.

     the Fermi energy is     2.3368 ev

!    total energy              =    -774.57569392 Ry
     estimated scf accuracy    <       0.00000006 Ry
     smearing contrib. (-TS)   =      -0.00009179 Ry
     internal energy E=F+TS    =    -774.57560213 Ry

     The total energy is F=E-TS. E is the sum of the following terms:
     one-electron contribution =    -957.81939379 Ry
     hartree contribution      =     491.89811102 Ry
     xc contribution           =    -117.06475973 Ry
     ewald contribution        =    -191.51535244 Ry
     DFT-D3 Dispersion         =      -0.07420719 Ry

     total magnetization       =     3.86 Bohr mag/cell
     absolute magnetization    =     3.97 Bohr mag/cell

     convergence has been achieved in  12 iterations

     Forces acting on atoms (cartesian axes, Ry/au):

     atom    1 type  1   force =     0.00000289    0.00000000    0.00000136
     atom    2 type  1   force =    -0.00000006    0.00000000   -0.00000101
     atom    3 type  2   force =     0.00496891    0.00000000   -0.06241822
     atom    4 type  2   force =     0.00496695    0.00000000   -0.06241730
     atom    5 type  2   force =    -0.00496998    0.00000000    0.06241959
     atom    6 type  2   force =    -0.00496870    0.00000000    0.06241558

     Total force =     0.125230     Total SCF correction =     0.000104
     Energy error            =      4.1E-02 Ry
     Gradient error          =      6.2E-02 Ry/Bohr

     number of scf cycles    =   5
     number of bfgs steps    =   4

     energy             old  =    -774.5346843681 Ry
     energy             new  =    -774.5756939173 Ry

     CASE: energy            _new < energy            _old

     new trust radius        =       0.2414262314 bohr
     new conv_thr            =       0.0000006242 Ry


ATOMIC_POSITIONS (crystal)
Ni            0.4999991667        0.0000000000        0.2420042893
Ni           -0.0000023938        0.5000000000        0.2420004270
I             0.2394491638        0.0000000000        0.4494078854
I             0.7394506655        0.5000000000        0.4494125669
I             0.7605528129        0.0000000000        0.0345894768
I             0.2605505849        0.5000000000        0.0345853546



     Writing output data file ./tmp/monoclinic.save/
     NEW-OLD atomic charge density approx. for the potential
     Generating pointlists ...
     new r_m :   0.1645 (alat units)  2.1031 (a.u.) for type    1
     new r_m :   0.1645 (alat units)  2.1031 (a.u.) for type    2

     total cpu time spent up to now is      568.8 secs

     Self-consistent Calculation

     iteration #  1     ecut=   120.00 Ry     beta= 0.40
     Davidson diagonalization with overlap
     c_bands:  1 eigenvalues not converged
     ethr =  1.00E-06,  avg # of iterations = 10.5

     total cpu time spent up to now is      594.4 secs

     total energy              =    -774.63041035 Ry
     estimated scf accuracy    <       0.00696271 Ry

     total magnetization       =     3.90 Bohr mag/cell
     absolute magnetization    =     4.00 Bohr mag/cell

     iteration #  2     ecut=   120.00 Ry     beta= 0.40
     Davidson diagonalization with overlap
     ethr =  1.09E-05,  avg # of iterations =  2.6

     total cpu time spent up to now is      603.8 secs

     total energy              =    -774.62742808 Ry
     estimated scf accuracy    <       0.06699350 Ry

     total magnetization       =     4.00 Bohr mag/cell
     absolute magnetization    =     4.11 Bohr mag/cell

     iteration #  3     ecut=   120.00 Ry     beta= 0.40
     Davidson diagonalization with overlap
     ethr =  1.09E-05,  avg # of iterations =  2.0

     total cpu time spent up to now is      612.4 secs

     total energy              =    -774.63221276 Ry
     estimated scf accuracy    <       0.00369003 Ry

     total magnetization       =     3.89 Bohr mag/cell
     absolute magnetization    =     4.00 Bohr mag/cell

     iteration #  4     ecut=   120.00 Ry     beta= 0.40
     Davidson diagonalization with overlap
     ethr =  5.77E-06,  avg # of iterations =  2.0

     total cpu time spent up to now is      620.2 secs

     total energy              =    -774.63188894 Ry
     estimated scf accuracy    <       0.03397011 Ry

     total magnetization       =     3.88 Bohr mag/cell
     absolute magnetization    =     3.99 Bohr mag/cell

     iteration #  5     ecut=   120.00 Ry     beta= 0.40
     Davidson diagonalization with overlap
     ethr =  5.77E-06,  avg # of iterations =  1.4

     total cpu time spent up to now is      627.6 secs

     total energy              =    -774.63276590 Ry
     estimated scf accuracy    <       0.00023274 Ry

     total magnetization       =     3.90 Bohr mag/cell
     absolute magnetization    =     4.00 Bohr mag/cell

     iteration #  6     ecut=   120.00 Ry     beta= 0.40
     Davidson diagonalization with overlap
     ethr =  3.64E-07,  avg # of iterations =  2.0

     total cpu time spent up to now is      635.7 secs

     total energy              =    -774.63279433 Ry
     estimated scf accuracy    <       0.00061866 Ry

     total magnetization       =     3.92 Bohr mag/cell
     absolute magnetization    =     4.02 Bohr mag/cell

     iteration #  7     ecut=   120.00 Ry     beta= 0.40
     Davidson diagonalization with overlap
     ethr =  3.64E-07,  avg # of iterations =  1.1

     total cpu time spent up to now is      642.7 secs

     total energy              =    -774.63280493 Ry
     estimated scf accuracy    <       0.00004268 Ry

     total magnetization       =     3.92 Bohr mag/cell
     absolute magnetization    =     4.02 Bohr mag/cell

     iteration #  8     ecut=   120.00 Ry     beta= 0.40
     Davidson diagonalization with overlap
     ethr =  6.67E-08,  avg # of iterations =  1.0

     total cpu time spent up to now is      649.6 secs

     total energy              =    -774.63280774 Ry
     estimated scf accuracy    <       0.00005143 Ry

     total magnetization       =     3.91 Bohr mag/cell
     absolute magnetization    =     4.02 Bohr mag/cell

     iteration #  9     ecut=   120.00 Ry     beta= 0.40
     Davidson diagonalization with overlap
     ethr =  6.67E-08,  avg # of iterations =  1.0

     total cpu time spent up to now is      656.4 secs

     total energy              =    -774.63280826 Ry
     estimated scf accuracy    <       0.00001833 Ry

     total magnetization       =     3.92 Bohr mag/cell
     absolute magnetization    =     4.02 Bohr mag/cell

     iteration # 10     ecut=   120.00 Ry     beta= 0.40
     Davidson diagonalization with overlap
     ethr =  2.86E-08,  avg # of iterations =  1.0

     total cpu time spent up to now is      663.4 secs

     total energy              =    -774.63280938 Ry
     estimated scf accuracy    <       0.00003153 Ry

     total magnetization       =     3.92 Bohr mag/cell
     absolute magnetization    =     4.02 Bohr mag/cell

     iteration # 11     ecut=   120.00 Ry     beta= 0.40
     Davidson diagonalization with overlap
     ethr =  2.86E-08,  avg # of iterations =  1.0

     total cpu time spent up to now is      670.2 secs

     total energy              =    -774.63280999 Ry
     estimated scf accuracy    <       0.00000066 Ry

     total magnetization       =     3.92 Bohr mag/cell
     absolute magnetization    =     4.02 Bohr mag/cell

     iteration # 12     ecut=   120.00 Ry     beta= 0.40
     Davidson diagonalization with overlap
     ethr =  1.03E-09,  avg # of iterations =  2.0
 
     Magnetic moment per site  (integrated on atomic sphere of radius R)
     atom   1 (R=0.165)  charge= 16.6347  magn=  1.2977
     atom   2 (R=0.165)  charge= 16.6350  magn=  1.2974
     atom   3 (R=0.165)  charge=  3.9667  magn=  0.2020
     atom   4 (R=0.165)  charge=  3.9667  magn=  0.2020
     atom   5 (R=0.165)  charge=  3.9667  magn=  0.2020
     atom   6 (R=0.165)  charge=  3.9667  magn=  0.2020

     total cpu time spent up to now is      678.8 secs

     End of self-consistent calculation

     Number of k-points >= 100: set verbosity='high' to print the bands.

     the Fermi energy is     2.3870 ev

!    total energy              =    -774.63281014 Ry
     estimated scf accuracy    <       0.00000011 Ry
     smearing contrib. (-TS)   =      -0.00009005 Ry
     internal energy E=F+TS    =    -774.63272009 Ry

     The total energy is F=E-TS. E is the sum of the following terms:
     one-electron contribution =    -995.27035103 Ry
     hartree contribution      =     510.52800724 Ry
     xc contribution           =    -117.14918469 Ry
     ewald contribution        =    -172.66614381 Ry
     DFT-D3 Dispersion         =      -0.07504779 Ry

     total magnetization       =     3.92 Bohr mag/cell
     absolute magnetization    =     4.03 Bohr mag/cell

     convergence has been achieved in  12 iterations

     Forces acting on atoms (cartesian axes, Ry/au):

     atom    1 type  1   force =     0.00000614    0.00000000   -0.00000663
     atom    2 type  1   force =     0.00000368    0.00000000   -0.00000528
     atom    3 type  2   force =    -0.00045077    0.00000000   -0.05463179
     atom    4 type  2   force =    -0.00045302    0.00000000   -0.05463570
     atom    5 type  2   force =     0.00044504    0.00000000    0.05464053
     atom    6 type  2   force =     0.00044892    0.00000000    0.05463887

     Total force =     0.109277     Total SCF correction =     0.000306
     Energy error            =      5.7E-02 Ry
     Gradient error          =      5.5E-02 Ry/Bohr

     number of scf cycles    =   6
     number of bfgs steps    =   5

     energy             old  =    -774.5756939173 Ry
     energy             new  =    -774.6328101369 Ry

     CASE: energy            _new < energy            _old

     new trust radius        =       0.3621393472 bohr
     new conv_thr            =       0.0000005464 Ry


ATOMIC_POSITIONS (crystal)
Ni            0.4999991933        0.0000000000        0.2420062535
Ni           -0.0000031656        0.5000000000        0.2420001394
I             0.2417921691        0.0000000000        0.4299554789
I             0.7417942724        0.5000000000        0.4299625675
I             0.7582103108        0.0000000000        0.0540410711
I             0.2582072199        0.5000000000        0.0540344897



     Writing output data file ./tmp/monoclinic.save/
     NEW-OLD atomic charge density approx. for the potential

     negative rho (up, down):  0.000E+00 1.216E-07
     Generating pointlists ...
     new r_m :   0.1552 (alat units)  1.9843 (a.u.) for type    1
     new r_m :   0.1552 (alat units)  1.9843 (a.u.) for type    2

     total cpu time spent up to now is      685.7 secs

     Self-consistent Calculation

     iteration #  1     ecut=   120.00 Ry     beta= 0.40
     Davidson diagonalization with overlap
     c_bands:  1 eigenvalues not converged
     c_bands:  1 eigenvalues not converged
     c_bands:  1 eigenvalues not converged
     c_bands:  1 eigenvalues not converged
     c_bands:  2 eigenvalues not converged
     ethr =  1.00E-06,  avg # of iterations = 12.8

     total cpu time spent up to now is      714.3 secs

     total energy              =    -774.68613411 Ry
     estimated scf accuracy    <       0.02120362 Ry

     total magnetization       =     3.90 Bohr mag/cell
     absolute magnetization    =     3.99 Bohr mag/cell

     iteration #  2     ecut=   120.00 Ry     beta= 0.40
     Davidson diagonalization with overlap
     ethr =  3.31E-05,  avg # of iterations =  2.6

     total cpu time spent up to now is      723.9 secs

     total energy              =    -774.68268897 Ry
     estimated scf accuracy    <       0.14053708 Ry

     total magnetization       =     4.00 Bohr mag/cell
     absolute magnetization    =     4.10 Bohr mag/cell

     iteration #  3     ecut=   120.00 Ry     beta= 0.40
     Davidson diagonalization with overlap
     ethr =  3.31E-05,  avg # of iterations =  2.0

     total cpu time spent up to now is      732.6 secs

     total energy              =    -774.69339542 Ry
     estimated scf accuracy    <       0.00290056 Ry

     total magnetization       =     3.94 Bohr mag/cell
     absolute magnetization    =     4.03 Bohr mag/cell

     iteration #  4     ecut=   120.00 Ry     beta= 0.40
     Davidson diagonalization with overlap
     ethr =  4.53E-06,  avg # of iterations =  2.4

     total cpu time spent up to now is      741.3 secs

     total energy              =    -774.69291278 Ry
     estimated scf accuracy    <       0.03345273 Ry

     total magnetization       =     3.96 Bohr mag/cell
     absolute magnetization    =     4.05 Bohr mag/cell

     iteration #  5     ecut=   120.00 Ry     beta= 0.40
     Davidson diagonalization with overlap
     ethr =  4.53E-06,  avg # of iterations =  2.0

     total cpu time spent up to now is      749.5 secs

     total energy              =    -774.69391163 Ry
     estimated scf accuracy    <       0.00032736 Ry

     total magnetization       =     3.94 Bohr mag/cell
     absolute magnetization    =     4.04 Bohr mag/cell

     iteration #  6     ecut=   120.00 Ry     beta= 0.40
     Davidson diagonalization with overlap
     ethr =  5.11E-07,  avg # of iterations =  1.9

     total cpu time spent up to now is      757.3 secs

     total energy              =    -774.69394257 Ry
     estimated scf accuracy    <       0.00018141 Ry

     total magnetization       =     3.94 Bohr mag/cell
     absolute magnetization    =     4.04 Bohr mag/cell

     iteration #  7     ecut=   120.00 Ry     beta= 0.40
     Davidson diagonalization with overlap
     ethr =  2.83E-07,  avg # of iterations =  1.0

     total cpu time spent up to now is      764.1 secs

     total energy              =    -774.69395869 Ry
     estimated scf accuracy    <       0.00011513 Ry

     total magnetization       =     3.94 Bohr mag/cell
     absolute magnetization    =     4.04 Bohr mag/cell

     iteration #  8     ecut=   120.00 Ry     beta= 0.40
     Davidson diagonalization with overlap
     ethr =  1.80E-07,  avg # of iterations =  1.0

     total cpu time spent up to now is      771.0 secs

     total energy              =    -774.69396050 Ry
     estimated scf accuracy    <       0.00002523 Ry

     total magnetization       =     3.94 Bohr mag/cell
     absolute magnetization    =     4.04 Bohr mag/cell

     iteration #  9     ecut=   120.00 Ry     beta= 0.40
     Davidson diagonalization with overlap
     ethr =  3.94E-08,  avg # of iterations =  1.4

     total cpu time spent up to now is      778.5 secs

     total energy              =    -774.69396207 Ry
     estimated scf accuracy    <       0.00002229 Ry

     total magnetization       =     3.94 Bohr mag/cell
     absolute magnetization    =     4.04 Bohr mag/cell

     iteration # 10     ecut=   120.00 Ry     beta= 0.40
     Davidson diagonalization with overlap
     ethr =  3.48E-08,  avg # of iterations =  1.0

     total cpu time spent up to now is      785.4 secs

     total energy              =    -774.69396333 Ry
     estimated scf accuracy    <       0.00000865 Ry

     total magnetization       =     3.94 Bohr mag/cell
     absolute magnetization    =     4.04 Bohr mag/cell

     iteration # 11     ecut=   120.00 Ry     beta= 0.40
     Davidson diagonalization with overlap
     ethr =  1.35E-08,  avg # of iterations =  1.0
 
     Magnetic moment per site  (integrated on atomic sphere of radius R)
     atom   1 (R=0.155)  charge= 16.5073  magn=  1.2809
     atom   2 (R=0.155)  charge= 16.5063  magn=  1.2819
     atom   3 (R=0.155)  charge=  3.5287  magn=  0.1825
     atom   4 (R=0.155)  charge=  3.5288  magn=  0.1824
     atom   5 (R=0.155)  charge=  3.5287  magn=  0.1825
     atom   6 (R=0.155)  charge=  3.5287  magn=  0.1825

     total cpu time spent up to now is      792.3 secs

     End of self-consistent calculation

     Number of k-points >= 100: set verbosity='high' to print the bands.

     the Fermi energy is     2.4921 ev

!    total energy              =    -774.69396342 Ry
     estimated scf accuracy    <       0.00000049 Ry
     smearing contrib. (-TS)   =      -0.00009375 Ry
     internal energy E=F+TS    =    -774.69386967 Ry

     The total energy is F=E-TS. E is the sum of the following terms:
     one-electron contribution =   -1055.82964154 Ry
     hartree contribution      =     540.72758465 Ry
     xc contribution           =    -117.31433789 Ry
     ewald contribution        =    -142.20112635 Ry
     DFT-D3 Dispersion         =      -0.07634853 Ry

     total magnetization       =     3.94 Bohr mag/cell
     absolute magnetization    =     4.04 Bohr mag/cell

     convergence has been achieved in  11 iterations

     Forces acting on atoms (cartesian axes, Ry/au):

     atom    1 type  1   force =     0.00001811    0.00000000   -0.00002043
     atom    2 type  1   force =     0.00000779    0.00000000   -0.00001356
     atom    3 type  2   force =    -0.01634548    0.00000000   -0.02830507
     atom    4 type  2   force =    -0.01634084    0.00000000   -0.02829244
     atom    5 type  2   force =     0.01632884    0.00000000    0.02832810
     atom    6 type  2   force =     0.01633158    0.00000000    0.02830341

     Total force =     0.065366     Total SCF correction =     0.000625
     Energy error            =      6.1E-02 Ry
     Gradient error          =      2.8E-02 Ry/Bohr

     number of scf cycles    =   7
     number of bfgs steps    =   6

     energy             old  =    -774.6328101369 Ry
     energy             new  =    -774.6939634187 Ry

     CASE: energy            _new < energy            _old

     new trust radius        =       0.3674605027 bohr
     new conv_thr            =       0.0000002833 Ry


ATOMIC_POSITIONS (crystal)
Ni            0.5000018950        0.0000000000        0.2420058058
Ni           -0.0000030215        0.5000000000        0.2419989448
I             0.2417989095        0.0000000000        0.4101442038
I             0.7418024537        0.5000000000        0.4101548288
I             0.7582018338        0.0000000000        0.0738537447
I             0.2581979294        0.5000000000        0.0738424720



     Writing output data file ./tmp/monoclinic.save/
     NEW-OLD atomic charge density approx. for the potential

     negative rho (up, down):  0.000E+00 2.463E-07
     Generating pointlists ...
     new r_m :   0.1468 (alat units)  1.8769 (a.u.) for type    1
     new r_m :   0.1468 (alat units)  1.8769 (a.u.) for type    2

     total cpu time spent up to now is      799.1 secs

     Self-consistent Calculation

     iteration #  1     ecut=   120.00 Ry     beta= 0.40
     Davidson diagonalization with overlap
     c_bands:  1 eigenvalues not converged
     c_bands:  1 eigenvalues not converged
     c_bands:  1 eigenvalues not converged
     c_bands:  1 eigenvalues not converged
     c_bands:  2 eigenvalues not converged
     c_bands:  2 eigenvalues not converged
     c_bands:  1 eigenvalues not converged
     c_bands:  1 eigenvalues not converged
     c_bands:  1 eigenvalues not converged
     c_bands:  2 eigenvalues not converged
     c_bands:  2 eigenvalues not converged
     c_bands:  2 eigenvalues not converged
     c_bands:  1 eigenvalues not converged
     c_bands:  2 eigenvalues not converged
     ethr =  1.00E-06,  avg # of iterations = 15.1

     total cpu time spent up to now is      830.1 secs

     total energy              =    -774.69050560 Ry
     estimated scf accuracy    <       0.02603468 Ry

     total magnetization       =     3.74 Bohr mag/cell
     absolute magnetization    =     3.82 Bohr mag/cell

     iteration #  2     ecut=   120.00 Ry     beta= 0.40
     Davidson diagonalization with overlap
     ethr =  4.07E-05,  avg # of iterations =  2.3

     total cpu time spent up to now is      839.5 secs

     total energy              =    -774.68757622 Ry
     estimated scf accuracy    <       0.14320090 Ry

     total magnetization       =     3.94 Bohr mag/cell
     absolute magnetization    =     4.04 Bohr mag/cell

     iteration #  3     ecut=   120.00 Ry     beta= 0.40
     Davidson diagonalization with overlap
     ethr =  4.07E-05,  avg # of iterations =  2.0

     total cpu time spent up to now is      848.1 secs

     total energy              =    -774.69736558 Ry
     estimated scf accuracy    <       0.03106030 Ry

     total magnetization       =     3.76 Bohr mag/cell
     absolute magnetization    =     3.85 Bohr mag/cell

     iteration #  4     ecut=   120.00 Ry     beta= 0.40
     Davidson diagonalization with overlap
     ethr =  4.07E-05,  avg # of iterations =  1.0

     total cpu time spent up to now is      855.0 secs

     total energy              =    -774.69931283 Ry
     estimated scf accuracy    <       0.01530136 Ry

     total magnetization       =     3.76 Bohr mag/cell
     absolute magnetization    =     3.85 Bohr mag/cell

     iteration #  5     ecut=   120.00 Ry     beta= 0.40
     Davidson diagonalization with overlap
     ethr =  2.39E-05,  avg # of iterations =  1.0

     total cpu time spent up to now is      861.9 secs

     total energy              =    -774.69986395 Ry
     estimated scf accuracy    <       0.00033767 Ry

     total magnetization       =     3.87 Bohr mag/cell
     absolute magnetization    =     3.95 Bohr mag/cell

     iteration #  6     ecut=   120.00 Ry     beta= 0.40
     Davidson diagonalization with overlap
     ethr =  5.28E-07,  avg # of iterations =  1.8

     total cpu time spent up to now is      869.8 secs

     total energy              =    -774.69991006 Ry
     estimated scf accuracy    <       0.00011273 Ry

     total magnetization       =     3.87 Bohr mag/cell
     absolute magnetization    =     3.96 Bohr mag/cell

     iteration #  7     ecut=   120.00 Ry     beta= 0.40
     Davidson diagonalization with overlap
     ethr =  1.76E-07,  avg # of iterations =  2.0

     total cpu time spent up to now is      878.2 secs

     total energy              =    -774.69992913 Ry
     estimated scf accuracy    <       0.00004338 Ry

     total magnetization       =     3.88 Bohr mag/cell
     absolute magnetization    =     3.97 Bohr mag/cell

     iteration #  8     ecut=   120.00 Ry     beta= 0.40
     Davidson diagonalization with overlap
     ethr =  6.78E-08,  avg # of iterations =  1.1

     total cpu time spent up to now is      885.2 secs

     total energy              =    -774.69993342 Ry
     estimated scf accuracy    <       0.00000472 Ry

     total magnetization       =     3.88 Bohr mag/cell
     absolute magnetization    =     3.97 Bohr mag/cell

     iteration #  9     ecut=   120.00 Ry     beta= 0.40
     Davidson diagonalization with overlap
     ethr =  7.38E-09,  avg # of iterations =  2.0

     total cpu time spent up to now is      893.3 secs

     total energy              =    -774.69993453 Ry
     estimated scf accuracy    <       0.00000214 Ry

     total magnetization       =     3.89 Bohr mag/cell
     absolute magnetization    =     3.97 Bohr mag/cell

     iteration # 10     ecut=   120.00 Ry     beta= 0.40
     Davidson diagonalization with overlap
     ethr =  3.35E-09,  avg # of iterations =  1.9

     total cpu time spent up to now is      901.3 secs

     total energy              =    -774.69993505 Ry
     estimated scf accuracy    <       0.00000134 Ry

     total magnetization       =     3.89 Bohr mag/cell
     absolute magnetization    =     3.98 Bohr mag/cell

     iteration # 11     ecut=   120.00 Ry     beta= 0.40
     Davidson diagonalization with overlap
     ethr =  2.09E-09,  avg # of iterations =  1.3
 
     Magnetic moment per site  (integrated on atomic sphere of radius R)
     atom   1 (R=0.147)  charge= 16.3744  magn=  1.2293
     atom   2 (R=0.147)  charge= 16.3743  magn=  1.2294
     atom   3 (R=0.147)  charge=  3.1103  magn=  0.1612
     atom   4 (R=0.147)  charge=  3.1102  magn=  0.1612
     atom   5 (R=0.147)  charge=  3.1100  magn=  0.1612
     atom   6 (R=0.147)  charge=  3.1099  magn=  0.1612

     total cpu time spent up to now is      908.7 secs

     End of self-consistent calculation

     Number of k-points >= 100: set verbosity='high' to print the bands.

     the Fermi energy is     2.5766 ev

!    total energy              =    -774.69993515 Ry
     estimated scf accuracy    <       0.00000022 Ry
     smearing contrib. (-TS)   =      -0.00008100 Ry
     internal energy E=F+TS    =    -774.69985415 Ry

     The total energy is F=E-TS. E is the sum of the following terms:
     one-electron contribution =   -1121.51338129 Ry
     hartree contribution      =     573.46008833 Ry
     xc contribution           =    -117.53257465 Ry
     ewald contribution        =    -109.04267708 Ry
     DFT-D3 Dispersion         =      -0.07130946 Ry

     total magnetization       =     3.89 Bohr mag/cell
     absolute magnetization    =     3.98 Bohr mag/cell

     convergence has been achieved in  11 iterations

     Forces acting on atoms (cartesian axes, Ry/au):

     atom    1 type  1   force =     0.00002202    0.00000000   -0.00001495
     atom    2 type  1   force =     0.00001261    0.00000000   -0.00000538
     atom    3 type  2   force =    -0.04560079    0.00000000    0.01686320
     atom    4 type  2   force =    -0.04558664    0.00000000    0.01684391
     atom    5 type  2   force =     0.04557843    0.00000000   -0.01684720
     atom    6 type  2   force =     0.04557437    0.00000000   -0.01683958

     Total force =     0.097198     Total SCF correction =     0.000329
     Energy error            =      6.0E-03 Ry
     Gradient error          =      4.6E-02 Ry/Bohr

     number of scf cycles    =   8
     number of bfgs steps    =   7

     energy             old  =    -774.6939634187 Ry
     energy             new  =    -774.6999351537 Ry

     CASE: energy            _new < energy            _old

     new trust radius        =       0.1216661939 bohr
     new conv_thr            =       0.0000004560 Ry


ATOMIC_POSITIONS (crystal)
Ni            0.5000030543        0.0000000000        0.2420043326
Ni           -0.0000021938        0.5000000000        0.2419991405
I             0.2392045936        0.0000000000        0.4164485789
I             0.7392084221        0.5000000000        0.4164571725
I             0.7607949620        0.0000000000        0.0675502117
I             0.2607911617        0.5000000000        0.0675405637



     Writing output data file ./tmp/monoclinic.save/
     NEW-OLD atomic charge density approx. for the potential
     Generating pointlists ...

     total cpu time spent up to now is      915.6 secs

     Self-consistent Calculation

     iteration #  1     ecut=   120.00 Ry     beta= 0.40
     Davidson diagonalization with overlap
     c_bands:  2 eigenvalues not converged
     c_bands:  1 eigenvalues not converged
     ethr =  1.00E-06,  avg # of iterations = 10.3

     total cpu time spent up to now is      940.2 secs

     total energy              =    -774.70707066 Ry
     estimated scf accuracy    <       0.00450024 Ry

     total magnetization       =     3.94 Bohr mag/cell
     absolute magnetization    =     4.04 Bohr mag/cell

     iteration #  2     ecut=   120.00 Ry     beta= 0.40
     Davidson diagonalization with overlap
     ethr =  7.03E-06,  avg # of iterations =  2.1

     total cpu time spent up to now is      949.5 secs

     total energy              =    -774.70459882 Ry
     estimated scf accuracy    <       0.05468255 Ry

     total magnetization       =     3.66 Bohr mag/cell
     absolute magnetization    =     3.76 Bohr mag/cell

     iteration #  3     ecut=   120.00 Ry     beta= 0.40
     Davidson diagonalization with overlap
     ethr =  7.03E-06,  avg # of iterations =  2.0

     total cpu time spent up to now is      958.2 secs

     total energy              =    -774.70851670 Ry
     estimated scf accuracy    <       0.00171811 Ry

     total magnetization       =     3.95 Bohr mag/cell
     absolute magnetization    =     4.04 Bohr mag/cell

     iteration #  4     ecut=   120.00 Ry     beta= 0.40
     Davidson diagonalization with overlap
     ethr =  2.68E-06,  avg # of iterations =  1.1

     total cpu time spent up to now is      965.2 secs

     total energy              =    -774.70848962 Ry
     estimated scf accuracy    <       0.00382297 Ry

     total magnetization       =     3.95 Bohr mag/cell
     absolute magnetization    =     4.04 Bohr mag/cell

     iteration #  5     ecut=   120.00 Ry     beta= 0.40
     Davidson diagonalization with overlap
     ethr =  2.68E-06,  avg # of iterations =  1.0

[...]

     total energy              =    -774.78512581 Ry
     estimated scf accuracy    <       0.00003886 Ry

     total magnetization       =     4.00 Bohr mag/cell
     absolute magnetization    =     4.16 Bohr mag/cell

     iteration #  3     ecut=   120.00 Ry     beta= 0.40
     Davidson diagonalization with overlap
     ethr =  2.59E-08,  avg # of iterations =  2.0

     total cpu time spent up to now is     1871.5 secs

     total energy              =    -774.78513105 Ry
     estimated scf accuracy    <       0.00000228 Ry

     total magnetization       =     4.00 Bohr mag/cell
     absolute magnetization    =     4.16 Bohr mag/cell

     iteration #  4     ecut=   120.00 Ry     beta= 0.40
     Davidson diagonalization with overlap
     ethr =  3.56E-09,  avg # of iterations =  1.4

     total cpu time spent up to now is     1879.2 secs

     total energy              =    -774.78513121 Ry
     estimated scf accuracy    <       0.00000040 Ry

     total magnetization       =     4.00 Bohr mag/cell
     absolute magnetization    =     4.16 Bohr mag/cell

     iteration #  5     ecut=   120.00 Ry     beta= 0.40
     Davidson diagonalization with overlap
     ethr =  6.19E-10,  avg # of iterations =  1.7

     total cpu time spent up to now is     1886.8 secs

     total energy              =    -774.78513126 Ry
     estimated scf accuracy    <       0.00000015 Ry

     total magnetization       =     4.00 Bohr mag/cell
     absolute magnetization    =     4.16 Bohr mag/cell

     iteration #  6     ecut=   120.00 Ry     beta= 0.40
     Davidson diagonalization with overlap
     ethr =  2.32E-10,  avg # of iterations =  2.0

     total cpu time spent up to now is     1895.6 secs

     total energy              =    -774.78513129 Ry
     estimated scf accuracy    <       0.00000005 Ry

     total magnetization       =     4.00 Bohr mag/cell
     absolute magnetization    =     4.16 Bohr mag/cell

     iteration #  7     ecut=   120.00 Ry     beta= 0.40
     Davidson diagonalization with overlap
     ethr =  8.55E-11,  avg # of iterations =  1.0
 
     Magnetic moment per site  (integrated on atomic sphere of radius R)
     atom   1 (R=0.147)  charge= 16.3100  magn=  1.2794
     atom   2 (R=0.147)  charge= 16.3101  magn=  1.2794
     atom   3 (R=0.147)  charge=  3.1002  magn=  0.1698
     atom   4 (R=0.147)  charge=  3.1001  magn=  0.1698
     atom   5 (R=0.147)  charge=  3.1005  magn=  0.1698
     atom   6 (R=0.147)  charge=  3.1005  magn=  0.1698

     total cpu time spent up to now is     1902.4 secs

     End of self-consistent calculation

     Number of k-points >= 100: set verbosity='high' to print the bands.

     the Fermi energy is     2.6826 ev

!    total energy              =    -774.78513129 Ry
     estimated scf accuracy    <       0.00000002 Ry
     smearing contrib. (-TS)   =       0.00000000 Ry
     internal energy E=F+TS    =    -774.78513129 Ry

     The total energy is F=E-TS. E is the sum of the following terms:
     one-electron contribution =   -1147.81454056 Ry
     hartree contribution      =     586.62325344 Ry
     xc contribution           =    -117.53617856 Ry
     ewald contribution        =     -95.98778697 Ry
     DFT-D3 Dispersion         =      -0.06987862 Ry

     total magnetization       =     4.00 Bohr mag/cell
     absolute magnetization    =     4.16 Bohr mag/cell

     convergence has been achieved in   7 iterations

     Forces acting on atoms (cartesian axes, Ry/au):

     atom    1 type  1   force =    -0.00002548    0.00000000    0.00002248
     atom    2 type  1   force =    -0.00001466    0.00000000   -0.00000848
     atom    3 type  2   force =     0.00130200    0.00000000   -0.00416111
     atom    4 type  2   force =     0.00124732    0.00000000   -0.00418813
     atom    5 type  2   force =    -0.00127658    0.00000000    0.00415376
     atom    6 type  2   force =    -0.00123261    0.00000000    0.00418148

     Total force =     0.008718     Total SCF correction =     0.000104
     Energy error            =      2.6E-04 Ry
     Gradient error          =      4.2E-03 Ry/Bohr

     number of scf cycles    =  19
     number of bfgs steps    =  18

     energy             old  =    -774.7848712961 Ry
     energy             new  =    -774.7851312890 Ry

     CASE: energy            _new < energy            _old

     new trust radius        =       0.0218005124 bohr
     new conv_thr            =       0.0000000260 Ry


ATOMIC_POSITIONS (crystal)
Ni            0.5000138494        0.0000000000        0.2419886056
Ni            0.0000068706        0.5000000000        0.2420093236
I             0.1664078484        0.0000000000        0.3990612682
I             0.6664130320        0.5000000000        0.3990684127
I             0.8335880410        0.0000000000        0.0849454650
I             0.3335703586        0.5000000000        0.0849269250



     Writing output data file ./tmp/monoclinic.save/
     NEW-OLD atomic charge density approx. for the potential
     Generating pointlists ...

     total cpu time spent up to now is     1909.4 secs

     Self-consistent Calculation

     iteration #  1     ecut=   120.00 Ry     beta= 0.40
     Davidson diagonalization with overlap
     ethr =  1.00E-06,  avg # of iterations =  5.4

     Threshold (ethr) on eigenvalues was too large:
     Diagonalizing with lowered threshold

     Davidson diagonalization with overlap
     ethr =  5.47E-08,  avg # of iterations =  2.1

     total cpu time spent up to now is     1932.2 secs

     total energy              =    -774.78538012 Ry
     estimated scf accuracy    <       0.00003658 Ry

     total magnetization       =     4.00 Bohr mag/cell
     absolute magnetization    =     4.16 Bohr mag/cell

     iteration #  2     ecut=   120.00 Ry     beta= 0.40
     Davidson diagonalization with overlap
     ethr =  5.72E-08,  avg # of iterations =  2.0

     total cpu time spent up to now is     1941.0 secs

     total energy              =    -774.78537863 Ry
     estimated scf accuracy    <       0.00008025 Ry

     total magnetization       =     4.00 Bohr mag/cell
     absolute magnetization    =     4.16 Bohr mag/cell

     iteration #  3     ecut=   120.00 Ry     beta= 0.40
     Davidson diagonalization with overlap
     ethr =  5.72E-08,  avg # of iterations =  2.0

     total cpu time spent up to now is     1949.9 secs

     total energy              =    -774.78538978 Ry
     estimated scf accuracy    <       0.00000546 Ry

     total magnetization       =     4.00 Bohr mag/cell
     absolute magnetization    =     4.16 Bohr mag/cell

     iteration #  4     ecut=   120.00 Ry     beta= 0.40
     Davidson diagonalization with overlap
     ethr =  8.53E-09,  avg # of iterations =  1.5

     total cpu time spent up to now is     1957.5 secs

     total energy              =    -774.78539022 Ry
     estimated scf accuracy    <       0.00000042 Ry

     total magnetization       =     4.00 Bohr mag/cell
     absolute magnetization    =     4.16 Bohr mag/cell

     iteration #  5     ecut=   120.00 Ry     beta= 0.40
     Davidson diagonalization with overlap
     ethr =  6.49E-10,  avg # of iterations =  2.0

     total cpu time spent up to now is     1966.2 secs

     total energy              =    -774.78539031 Ry
     estimated scf accuracy    <       0.00000008 Ry

     total magnetization       =     4.00 Bohr mag/cell
     absolute magnetization    =     4.16 Bohr mag/cell

     iteration #  6     ecut=   120.00 Ry     beta= 0.40
     Davidson diagonalization with overlap
     ethr =  1.25E-10,  avg # of iterations =  2.1

     total cpu time spent up to now is     1975.2 secs

     total energy              =    -774.78539032 Ry
     estimated scf accuracy    <       0.00000015 Ry

     total magnetization       =     4.00 Bohr mag/cell
     absolute magnetization    =     4.16 Bohr mag/cell

     iteration #  7     ecut=   120.00 Ry     beta= 0.40
     Davidson diagonalization with overlap
     ethr =  1.25E-10,  avg # of iterations =  2.0

     total cpu time spent up to now is     1983.0 secs

     total energy              =    -774.78539033 Ry
     estimated scf accuracy    <       0.00000003 Ry

     total magnetization       =     4.00 Bohr mag/cell
     absolute magnetization    =     4.16 Bohr mag/cell

     iteration #  8     ecut=   120.00 Ry     beta= 0.40
     Davidson diagonalization with overlap
     ethr =  4.21E-11,  avg # of iterations =  2.0
 
     Magnetic moment per site  (integrated on atomic sphere of radius R)
     atom   1 (R=0.147)  charge= 16.3139  magn=  1.2768
     atom   2 (R=0.147)  charge= 16.3140  magn=  1.2768
     atom   3 (R=0.147)  charge=  3.1011  magn=  0.1705
     atom   4 (R=0.147)  charge=  3.1011  magn=  0.1705
     atom   5 (R=0.147)  charge=  3.1013  magn=  0.1705
     atom   6 (R=0.147)  charge=  3.1013  magn=  0.1705

     total cpu time spent up to now is     1990.8 secs

     End of self-consistent calculation

     Number of k-points >= 100: set verbosity='high' to print the bands.

     the Fermi energy is     2.6928 ev

!    total energy              =    -774.78539034 Ry
     estimated scf accuracy    <          5.5E-09 Ry
     smearing contrib. (-TS)   =       0.00000000 Ry
     internal energy E=F+TS    =    -774.78539034 Ry

     The total energy is F=E-TS. E is the sum of the following terms:
     one-electron contribution =   -1150.75596544 Ry
     hartree contribution      =     588.09392346 Ry
     xc contribution           =    -117.54708252 Ry
     ewald contribution        =     -94.50647818 Ry
     DFT-D3 Dispersion         =      -0.06978766 Ry

     total magnetization       =     4.00 Bohr mag/cell
     absolute magnetization    =     4.16 Bohr mag/cell

     convergence has been achieved in   8 iterations

     Forces acting on atoms (cartesian axes, Ry/au):

     atom    1 type  1   force =    -0.00002014    0.00000000    0.00001658
     atom    2 type  1   force =    -0.00000730    0.00000000   -0.00001019
     atom    3 type  2   force =     0.00063427    0.00000000   -0.00211468
     atom    4 type  2   force =     0.00060435    0.00000000   -0.00213018
     atom    5 type  2   force =    -0.00061843    0.00000000    0.00210844
     atom    6 type  2   force =    -0.00059274    0.00000000    0.00213003

     Total force =     0.004415     Total SCF correction =     0.000163
     Energy error            =      2.6E-04 Ry
     Gradient error          =      2.1E-03 Ry/Bohr

     number of scf cycles    =  20
     number of bfgs steps    =  19

     energy             old  =    -774.7851312890 Ry
     energy             new  =    -774.7853903379 Ry

     CASE: energy            _new < energy            _old

     new trust radius        =       0.0216904249 bohr
     new conv_thr            =       0.0000000213 Ry


ATOMIC_POSITIONS (crystal)
Ni            0.5000072904        0.0000000000        0.2419906812
Ni            0.0000025963        0.5000000000        0.2420044832
I             0.1674902469        0.0000000000        0.3981636493
I             0.6674817319        0.5000000000        0.3981653817
I             0.8325119669        0.0000000000        0.0858446769
I             0.3325061677        0.5000000000        0.0858311276



     Writing output data file ./tmp/monoclinic.save/
     NEW-OLD atomic charge density approx. for the potential
     Generating pointlists ...

     total cpu time spent up to now is     1997.7 secs

     Self-consistent Calculation

     iteration #  1     ecut=   120.00 Ry     beta= 0.40
     Davidson diagonalization with overlap
     ethr =  1.00E-06,  avg # of iterations =  5.6

     Threshold (ethr) on eigenvalues was too large:
     Diagonalizing with lowered threshold

     Davidson diagonalization with overlap
     ethr =  4.83E-08,  avg # of iterations =  2.1

     total cpu time spent up to now is     2020.9 secs

     total energy              =    -774.78546675 Ry
     estimated scf accuracy    <       0.00003235 Ry

     total magnetization       =     4.00 Bohr mag/cell
     absolute magnetization    =     4.16 Bohr mag/cell

     iteration #  2     ecut=   120.00 Ry     beta= 0.40
     Davidson diagonalization with overlap
     ethr =  5.06E-08,  avg # of iterations =  2.0

     total cpu time spent up to now is     2029.6 secs

     total energy              =    -774.78546527 Ry
     estimated scf accuracy    <       0.00006136 Ry

     total magnetization       =     4.00 Bohr mag/cell
     absolute magnetization    =     4.16 Bohr mag/cell

     iteration #  3     ecut=   120.00 Ry     beta= 0.40
     Davidson diagonalization with overlap
     ethr =  5.06E-08,  avg # of iterations =  2.1

     total cpu time spent up to now is     2038.1 secs

     total energy              =    -774.78547436 Ry
     estimated scf accuracy    <       0.00000605 Ry

     total magnetization       =     4.00 Bohr mag/cell
     absolute magnetization    =     4.16 Bohr mag/cell

     iteration #  4     ecut=   120.00 Ry     beta= 0.40
     Davidson diagonalization with overlap
     ethr =  9.45E-09,  avg # of iterations =  1.4

     total cpu time spent up to now is     2045.5 secs

     total energy              =    -774.78547482 Ry
     estimated scf accuracy    <       0.00000041 Ry

     total magnetization       =     4.00 Bohr mag/cell
     absolute magnetization    =     4.16 Bohr mag/cell

     iteration #  5     ecut=   120.00 Ry     beta= 0.40
     Davidson diagonalization with overlap
     ethr =  6.40E-10,  avg # of iterations =  2.0

     total cpu time spent up to now is     2054.2 secs

     total energy              =    -774.78547488 Ry
     estimated scf accuracy    <       0.00000020 Ry

     total magnetization       =     4.00 Bohr mag/cell
     absolute magnetization    =     4.16 Bohr mag/cell

     iteration #  6     ecut=   120.00 Ry     beta= 0.40
     Davidson diagonalization with overlap
     ethr =  3.15E-10,  avg # of iterations =  2.0

     total cpu time spent up to now is     2062.4 secs

     total energy              =    -774.78547493 Ry
     estimated scf accuracy    <       0.00000012 Ry

     total magnetization       =     4.00 Bohr mag/cell
     absolute magnetization    =     4.16 Bohr mag/cell

     iteration #  7     ecut=   120.00 Ry     beta= 0.40
     Davidson diagonalization with overlap
     ethr =  1.95E-10,  avg # of iterations =  1.1

     total cpu time spent up to now is     2069.4 secs

     total energy              =    -774.78547494 Ry
     estimated scf accuracy    <       0.00000002 Ry

     total magnetization       =     4.00 Bohr mag/cell
     absolute magnetization    =     4.16 Bohr mag/cell

     iteration #  8     ecut=   120.00 Ry     beta= 0.40
     Davidson diagonalization with overlap
     ethr =  3.78E-11,  avg # of iterations =  1.9
 
     Magnetic moment per site  (integrated on atomic sphere of radius R)
     atom   1 (R=0.147)  charge= 16.3180  magn=  1.2741
     atom   2 (R=0.147)  charge= 16.3180  magn=  1.2740
     atom   3 (R=0.147)  charge=  3.1020  magn=  0.1712
     atom   4 (R=0.147)  charge=  3.1020  magn=  0.1712
     atom   5 (R=0.147)  charge=  3.1020  magn=  0.1712
     atom   6 (R=0.147)  charge=  3.1020  magn=  0.1712

     total cpu time spent up to now is     2077.1 secs

     End of self-consistent calculation

     Number of k-points >= 100: set verbosity='high' to print the bands.

     the Fermi energy is     2.7037 ev

!    total energy              =    -774.78547494 Ry
     estimated scf accuracy    <          6.0E-09 Ry
     smearing contrib. (-TS)   =       0.00000000 Ry
     internal energy E=F+TS    =    -774.78547494 Ry

     The total energy is F=E-TS. E is the sum of the following terms:
     one-electron contribution =   -1153.79540100 Ry
     hartree contribution      =     589.61141983 Ry
     xc contribution           =    -117.55822819 Ry
     ewald contribution        =     -92.97357157 Ry
     DFT-D3 Dispersion         =      -0.06969402 Ry

     total magnetization       =     4.00 Bohr mag/cell
     absolute magnetization    =     4.16 Bohr mag/cell

     convergence has been achieved in   8 iterations

     Forces acting on atoms (cartesian axes, Ry/au):

     atom    1 type  1   force =    -0.00001542    0.00000000    0.00001331
     atom    2 type  1   force =    -0.00000037    0.00000000    0.00000478
     atom    3 type  2   force =    -0.00005736    0.00000000    0.00006023
     atom    4 type  2   force =    -0.00005486    0.00000000    0.00005738
     atom    5 type  2   force =     0.00006322    0.00000000   -0.00007429
     atom    6 type  2   force =     0.00006479    0.00000000   -0.00006140

     Total force =     0.000176     Total SCF correction =     0.000072
     SCF correction compared to forces is large: reduce conv_thr to get better values
     Energy error            =      8.5E-05 Ry
     Gradient error          =      7.4E-05 Ry/Bohr

     bfgs converged in  21 scf cycles and  20 bfgs steps
     (criteria: energy <  1.0E-04 Ry, force <  1.0E-03 Ry/Bohr)

     End of BFGS Geometry Optimization

     Final energy             =    -774.7854749426 Ry

     File ./tmp/monoclinic.bfgs deleted, as requested
Begin final coordinates

ATOMIC_POSITIONS (crystal)
Ni            0.5000072904        0.0000000000        0.2419906812
Ni            0.0000025963        0.5000000000        0.2420044832
I             0.1674902469        0.0000000000        0.3981636493
I             0.6674817319        0.5000000000        0.3981653817
I             0.8325119669        0.0000000000        0.0858446769
I             0.3325061677        0.5000000000        0.0858311276
End final coordinates



     Writing output data file ./tmp/monoclinic.save/
 
     init_run     :      7.11s CPU      7.62s WALL (       1 calls)
     electrons    :   1910.60s CPU   1930.76s WALL (      21 calls)
     update_pot   :     67.53s CPU     67.57s WALL (      20 calls)
     forces       :     69.55s CPU     69.96s WALL (      21 calls)
     force_dftd3  :      1.73s CPU      1.76s WALL (      21 calls)

     Called by init_run:
     wfcinit      :      2.67s CPU      2.91s WALL (       1 calls)
     potinit      :      2.03s CPU      2.09s WALL (       1 calls)
     hinit0       :      2.27s CPU      2.47s WALL (       1 calls)

     Called by electrons:
     c_bands      :   1698.32s CPU   1713.61s WALL (     208 calls)
     sum_band     :    193.12s CPU    195.79s WALL (     208 calls)
     v_of_rho     :     15.51s CPU     15.68s WALL (     225 calls)
     mix_rho      :      1.49s CPU      1.62s WALL (     208 calls)
     energy_dftd3 :      1.90s CPU      1.91s WALL (      21 calls)

     Called by c_bands:
     init_us_2    :     34.80s CPU     35.31s WALL (   35040 calls)
     cegterg      :   1552.05s CPU   1566.12s WALL (   16640 calls)

     Called by *egterg:
     cdiaghg      :    344.19s CPU    345.23s WALL (   54882 calls)
     h_psi        :    945.13s CPU    957.16s WALL (   56882 calls)
     g_psi        :      4.50s CPU      4.52s WALL (   40162 calls)

     Called by h_psi:
     h_psi:calbec :     52.22s CPU     52.87s WALL (   56882 calls)
     vloc_psi     :    836.38s CPU    847.16s WALL (   56882 calls)
     add_vuspsi   :     47.88s CPU     48.45s WALL (   56882 calls)

     General routines
     calbec       :     59.11s CPU     59.85s WALL (   63602 calls)
     fft          :      6.14s CPU      6.40s WALL (    5434 calls)
     ffts         :      0.42s CPU      0.45s WALL (     866 calls)
     fftw         :    920.68s CPU    932.73s WALL ( 3877272 calls)
     interpolate  :      0.50s CPU      0.54s WALL (     450 calls)
 
     Parallel routines
 
     PWSCF        :  34m22.20s CPU  34m50.79s WALL

 
   This run was terminated on:  17:10:21  27Feb2023            

=------------------------------------------------------------------------------=
   JOB DONE.
=------------------------------------------------------------------------------=
