
     Program PWSCF v.6.4.1 starts on 24May2021 at 21:43:29 

     This program is part of the open-source Quantum ESPRESSO suite
     for quantum simulation of materials; please cite
         "P. Giannozzi et al., J. Phys.:Condens. Matter 21 395502 (2009);
         "P. Giannozzi et al., J. Phys.:Condens. Matter 29 465901 (2017);
          URL http://www.quantum-espresso.org", 
     in publications or presentations arising from this work. More details at
     http://www.quantum-espresso.org/quote

     Parallel version (MPI & OpenMP), running on      64 processor cores
     Number of MPI processes:                64
     Threads/MPI process:                     1

     MPI processes distributed on     2 nodes
     R & G space division:  proc/nbgrp/npool/nimage =      64
     Reading input from cri3.vcrelax1.in

     Current dimensions of program PWSCF are:
     Max number of different atomic species (ntypx) = 10
     Max number of k-points (npk) =  40000
     Max angular momentum in pseudopotentials (lmaxx) =  3
               file Cr.pbe-spn-rrkjus_psl.1.0.0.UPF: wavefunction(s)  3P renormalized
               file I.pbe-n-rrkjus_psl.1.0.0.UPF: wavefunction(s)  5S renormalized

     Subspace diagonalization in iterative solution of the eigenvalue problem:
     one sub-group per band group will be used
     scalapack distributed-memory algorithm (size of sub-group:  5*  5 procs)

     Message from routine setup:
     DEPRECATED: symmetry with ibrav=0, use correct ibrav instead
 
     Parallelization info
     --------------------
     sticks:   dense  smooth     PW     G-vecs:    dense   smooth      PW
     Min          86      37     10                15613     4473     634
     Max          88      38     11                15621     4488     651
     Sum        5551    2407    661               999541   286721   40893
 


     bravais-lattice index     =            0
     lattice parameter (alat)  =      12.9767  a.u.
     unit-cell volume          =    5999.8254 (a.u.)^3
     number of atoms/cell      =            8
     number of atomic types    =            2
     number of electrons       =        70.00
     number of Kohn-Sham states=           42
     kinetic-energy cutoff     =      50.0000  Ry
     charge density cutoff     =     460.0000  Ry
     convergence threshold     =      1.0E-07
     mixing beta               =       0.3000
     number of iterations used =            8  local-TF  mixing
     Exchange-correlation      = PBE ( 1  4  3  4 0 0)
     nstep                     =           50


     celldm(1)=  12.976749  celldm(2)=   0.000000  celldm(3)=   0.000000
     celldm(4)=   0.000000  celldm(5)=   0.000000  celldm(6)=   0.000000

     crystal axes: (cart. coord. in units of alat)
               a(1) = (   1.018190   0.000000   0.000000 )  
               a(2) = (  -0.509095   0.881779   0.000000 )  
               a(3) = (   0.000000   0.000000   3.058104 )  

     reciprocal axes: (cart. coord. in units 2 pi/alat)
               b(1) = (  0.982135  0.567036  0.000000 )  
               b(2) = (  0.000000  1.134071  0.000000 )  
               b(3) = (  0.000000  0.000000  0.327000 )  


     PseudoPot. # 1 for Cr read from file:
     /u/jojaibal/QuantumEspresso/pseudopotentials/rrkjus/Cr.pbe-spn-rrkjus_psl.1.0.0.UPF
     MD5 check sum: 1cccb78d95506852ff37c673b7f20ad2
     Pseudo is Ultrasoft + core correction, Zval = 14.0
     Generated using "atomic" code by A. Dal Corso v.6.2.2
     Using radial grid of 1183 points,  6 beta functions with: 
                l(1) =   0
                l(2) =   0
                l(3) =   1
                l(4) =   1
                l(5) =   2
                l(6) =   2
     Q(r) pseudized with 0 coefficients 


     PseudoPot. # 2 for I  read from file:
     /u/jojaibal/QuantumEspresso/pseudopotentials/rrkjus/I.pbe-n-rrkjus_psl.1.0.0.UPF
     MD5 check sum: 14988a0f935a9fe2c6536a8943853e3e
     Pseudo is Ultrasoft + core correction, Zval =  7.0
     Generated using "atomic" code by A. Dal Corso v.6.3
     Using radial grid of 1247 points,  6 beta functions with: 
                l(1) =   0
                l(2) =   0
                l(3) =   1
                l(4) =   1
                l(5) =   2
                l(6) =   2
     Q(r) pseudized with 0 coefficients 


     atomic species   valence    mass     pseudopotential
        Cr            14.00    51.99600     Cr( 1.00)
        I              7.00   126.90400     I ( 1.00)

     Starting magnetic structure 
     atomic species   magnetization
        Cr           1.000
        I            0.000


     Simplified LDA+U calculation (l_max = 2) with parameters (eV):
     atomic species    L          U    alpha       J0     beta
        Cr             2     4.2687   0.0000   0.0000   0.0000



      6 Sym. Ops. (no inversion) found ( 3 have fractional translation)



   Cartesian axes

     site n.     atom                  positions (alat units)
         1           Cr  tau(   1) = (  -0.0000000   0.5878525   0.9614628  )
         2           Cr  tau(   2) = (   0.0000000   0.0000000   0.9614628  )
         3           I   tau(   3) = (  -0.1440585   0.2939262   0.7327854  )
         4           I   tau(   4) = (   0.3265768   0.6100573   0.7327854  )
         5           I   tau(   5) = (   0.3265768  -0.0222048   0.7327854  )
         6           I   tau(   6) = (   0.1440606   0.2939262   1.1901282  )
         7           I   tau(   7) = (   0.6916125  -0.0222030   1.1901282  )
         8           I   tau(   8) = (  -0.3265779   0.6100555   1.1901282  )

     number of k points=     7  gaussian smearing, width (Ry)=  0.0010
                       cart. coord. in units 2pi/alat
        k(    1) = (   0.0000000   0.0000000   0.0000000), wk =   0.0277778
        k(    2) = (   0.0000000   0.1890119   0.0000000), wk =   0.1666667
        k(    3) = (   0.0000000   0.3780238   0.0000000), wk =   0.1666667
        k(    4) = (   0.0000000  -0.5670357   0.0000000), wk =   0.0833333
        k(    5) = (   0.1636891   0.2835178   0.0000000), wk =   0.1666667
        k(    6) = (   0.1636891   0.4725297   0.0000000), wk =   0.3333333
        k(    7) = (   0.3273782   0.5670357   0.0000000), wk =   0.0555556

     Dense  grid:   999541 G-vectors     FFT dimensions: (  96,  96, 288)

     Smooth grid:   286721 G-vectors     FFT dimensions: (  60,  60, 180)

     Estimated max dynamical RAM per process >      88.53 MB

     Estimated total dynamical RAM >       5.53 GB
     Generating pointlists ...
     new r_m :   0.1647 (alat units)  2.1374 (a.u.) for type    1
     new r_m :   0.1647 (alat units)  2.1374 (a.u.) for type    2

     Initial potential from superposition of free atoms

     starting charge   69.99800, renormalised to   70.00000

     negative rho (up, down):  5.412E-03 4.182E-01
     Number of +U iterations with fixed ns =  0
     Starting occupations:
 --- enter write_ns ---
 LDA+U parameters:
U( 1)     =  4.26870000
alpha( 1) =  0.00000000
atom    1   Tr[ns(na)] (up, down, total) =   5.00000  0.00000  5.00000
   spin  1
    eigenvalues: 
  1.000  1.000  1.000  1.000  1.000
    eigenvectors:
  1.000  0.000  0.000  0.000  0.000
  0.000  1.000  0.000  0.000  0.000
  0.000  0.000  1.000  0.000  0.000
  0.000  0.000  0.000  1.000  0.000
  0.000  0.000  0.000  0.000  1.000
    occupations:
  1.000  0.000  0.000  0.000  0.000
  0.000  1.000  0.000  0.000  0.000
  0.000  0.000  1.000  0.000  0.000
  0.000  0.000  0.000  1.000  0.000
  0.000  0.000  0.000  0.000  1.000
   spin  2
    eigenvalues: 
  0.000  0.000  0.000  0.000  0.000
    eigenvectors:
  1.000  0.000  0.000  0.000  0.000
  0.000  1.000  0.000  0.000  0.000
  0.000  0.000  1.000  0.000  0.000
  0.000  0.000  0.000  1.000  0.000
  0.000  0.000  0.000  0.000  1.000
    occupations:
  0.000  0.000  0.000  0.000  0.000
  0.000  0.000  0.000  0.000  0.000
  0.000  0.000  0.000  0.000  0.000
  0.000  0.000  0.000  0.000  0.000
  0.000  0.000  0.000  0.000  0.000
atomic mag. moment =     5.000000
atom    2   Tr[ns(na)] (up, down, total) =   5.00000  0.00000  5.00000
   spin  1
    eigenvalues: 
  1.000  1.000  1.000  1.000  1.000
    eigenvectors:
  1.000  0.000  0.000  0.000  0.000
  0.000  1.000  0.000  0.000  0.000
  0.000  0.000  1.000  0.000  0.000
  0.000  0.000  0.000  1.000  0.000
  0.000  0.000  0.000  0.000  1.000
    occupations:
  1.000  0.000  0.000  0.000  0.000
  0.000  1.000  0.000  0.000  0.000
  0.000  0.000  1.000  0.000  0.000
  0.000  0.000  0.000  1.000  0.000
  0.000  0.000  0.000  0.000  1.000
   spin  2
    eigenvalues: 
  0.000  0.000  0.000  0.000  0.000
    eigenvectors:
  1.000  0.000  0.000  0.000  0.000
  0.000  1.000  0.000  0.000  0.000
  0.000  0.000  1.000  0.000  0.000
  0.000  0.000  0.000  1.000  0.000
  0.000  0.000  0.000  0.000  1.000
    occupations:
  0.000  0.000  0.000  0.000  0.000
  0.000  0.000  0.000  0.000  0.000
  0.000  0.000  0.000  0.000  0.000
  0.000  0.000  0.000  0.000  0.000
  0.000  0.000  0.000  0.000  0.000
atomic mag. moment =     5.000000
N of occupied +U levels =   10.000000
 --- exit write_ns ---
 Atomic wfc used for LDA+U Projector are NOT orthogonalized
     Starting wfcs are   44 randomized atomic wfcs

     total cpu time spent up to now is       10.4 secs

     Self-consistent Calculation

     iteration #  1     ecut=    50.00 Ry     beta= 0.30
     Davidson diagonalization with overlap
     ethr =  1.00E-02,  avg # of iterations =  5.1
 --- enter write_ns ---
 LDA+U parameters:
U( 1)     =  4.26870000
alpha( 1) =  0.00000000
atom    1   Tr[ns(na)] (up, down, total) =   4.97348  0.28874  5.26221
   spin  1
    eigenvalues: 
  0.987  0.987  1.000  1.000  1.000
    eigenvectors:
  0.000  0.000  0.000  0.000  1.000
  0.103  0.607  0.049  0.241  0.000
  0.607  0.103  0.241  0.049  0.000
  0.042  0.248  0.120  0.589  0.000
  0.248  0.042  0.589  0.120  0.000
    occupations:
  1.000 -0.000 -0.000 -0.000 -0.000
 -0.000  0.991 -0.000 -0.006  0.000
 -0.000 -0.000  0.991  0.000  0.006
 -0.000 -0.006  0.000  0.996  0.000
 -0.000  0.000  0.006  0.000  0.996
   spin  2
    eigenvalues: 
  0.030  0.032  0.032  0.098  0.098
    eigenvectors:
  1.000  0.000  0.000  0.000  0.000
  0.000  0.058  0.289  0.099  0.554
  0.000  0.289  0.058  0.554  0.099
  0.000  0.108  0.545  0.052  0.294
  0.000  0.545  0.108  0.294  0.052
    occupations:
  0.030 -0.000 -0.000 -0.000 -0.000
 -0.000  0.075 -0.000  0.031 -0.000
 -0.000 -0.000  0.075 -0.000 -0.031
 -0.000  0.031 -0.000  0.054  0.000
 -0.000 -0.000 -0.031  0.000  0.054
atomic mag. moment =     4.684736
atom    2   Tr[ns(na)] (up, down, total) =   4.97348  0.28874  5.26221
   spin  1
    eigenvalues: 
  0.987  0.987  1.000  1.000  1.000
    eigenvectors:
  0.000  0.000  0.000  0.000  1.000
  0.103  0.607  0.049  0.241  0.000
  0.607  0.103  0.241  0.049  0.000
  0.042  0.248  0.120  0.589  0.000
  0.248  0.042  0.589  0.120  0.000
    occupations:
  1.000 -0.000 -0.000 -0.000 -0.000
 -0.000  0.991 -0.000 -0.006 -0.000
 -0.000 -0.000  0.991 -0.000  0.006
 -0.000 -0.006 -0.000  0.996  0.000
 -0.000 -0.000  0.006  0.000  0.996
   spin  2
    eigenvalues: 
  0.030  0.032  0.032  0.098  0.098
    eigenvectors:
  1.000  0.000  0.000  0.000  0.000
  0.000  0.057  0.289  0.099  0.554
  0.000  0.289  0.057  0.554  0.099
  0.000  0.108  0.545  0.052  0.294
  0.000  0.545  0.108  0.294  0.052
    occupations:
  0.030 -0.000 -0.000 -0.000 -0.000
 -0.000  0.075 -0.000  0.031  0.000
 -0.000 -0.000  0.075  0.000 -0.031
 -0.000  0.031  0.000  0.054  0.000
 -0.000  0.000 -0.031  0.000  0.054
atomic mag. moment =     4.684736
N of occupied +U levels =   10.524429
 --- exit write_ns ---

     negative rho (up, down):  4.031E-03 1.037E-01

     total cpu time spent up to now is       16.2 secs

     total energy              =    -547.68046666 Ry
     Harris-Foulkes estimate   =    -543.60079466 Ry
     estimated scf accuracy    <       4.46513193 Ry

     total magnetization       =     8.42 Bohr mag/cell
     absolute magnetization    =    11.80 Bohr mag/cell

     iteration #  2     ecut=    50.00 Ry     beta= 0.30
     Davidson diagonalization with overlap
     ethr =  6.38E-03,  avg # of iterations =  1.0

     negative rho (up, down):  1.712E-03 4.852E-01

     total cpu time spent up to now is       20.2 secs

     total energy              =    -549.61436583 Ry
     Harris-Foulkes estimate   =    -547.79521908 Ry
     estimated scf accuracy    <       2.31145926 Ry

     total magnetization       =     6.07 Bohr mag/cell
     absolute magnetization    =    13.04 Bohr mag/cell

     iteration #  3     ecut=    50.00 Ry     beta= 0.30
     Davidson diagonalization with overlap
     ethr =  3.30E-03,  avg # of iterations =  1.5

     negative rho (up, down):  1.459E-03 4.363E-01

     total cpu time spent up to now is       24.5 secs

     total energy              =    -549.91465105 Ry
     Harris-Foulkes estimate   =    -549.90684312 Ry
     estimated scf accuracy    <       0.50477935 Ry

     total magnetization       =     6.00 Bohr mag/cell
     absolute magnetization    =    10.43 Bohr mag/cell

     iteration #  4     ecut=    50.00 Ry     beta= 0.30
     Davidson diagonalization with overlap
     ethr =  7.21E-04,  avg # of iterations =  3.7

     negative rho (up, down):  6.886E-04 4.010E-01

     total cpu time spent up to now is       29.2 secs

     total energy              =    -549.95187000 Ry
     Harris-Foulkes estimate   =    -549.92887463 Ry
     estimated scf accuracy    <       0.29801901 Ry

     total magnetization       =     6.00 Bohr mag/cell
     absolute magnetization    =    10.41 Bohr mag/cell

     iteration #  5     ecut=    50.00 Ry     beta= 0.30
     Davidson diagonalization with overlap
     ethr =  4.26E-04,  avg # of iterations =  4.0

     negative rho (up, down):  3.912E-04 3.348E-01

     total cpu time spent up to now is       34.4 secs

     total energy              =    -549.99512655 Ry
     Harris-Foulkes estimate   =    -549.98756669 Ry
     estimated scf accuracy    <       0.00836389 Ry

     total magnetization       =     6.00 Bohr mag/cell
     absolute magnetization    =    10.04 Bohr mag/cell

     iteration #  6     ecut=    50.00 Ry     beta= 0.30
     Davidson diagonalization with overlap
     ethr =  1.19E-05,  avg # of iterations =  4.6

     negative rho (up, down):  2.228E-04 2.684E-01

     total cpu time spent up to now is       40.5 secs

     total energy              =    -550.00143466 Ry
     Harris-Foulkes estimate   =    -549.99990629 Ry
     estimated scf accuracy    <       0.00985784 Ry

     total magnetization       =     6.00 Bohr mag/cell
     absolute magnetization    =     9.95 Bohr mag/cell

     iteration #  7     ecut=    50.00 Ry     beta= 0.30
     Davidson diagonalization with overlap
     ethr =  1.19E-05,  avg # of iterations =  2.6

     negative rho (up, down):  1.470E-04 1.554E-01

     total cpu time spent up to now is       45.3 secs

     total energy              =    -550.00464374 Ry
     Harris-Foulkes estimate   =    -550.00327791 Ry
     estimated scf accuracy    <       0.00312781 Ry

     total magnetization       =     6.00 Bohr mag/cell
     absolute magnetization    =     9.70 Bohr mag/cell

     iteration #  8     ecut=    50.00 Ry     beta= 0.30
     Davidson diagonalization with overlap
     ethr =  4.47E-06,  avg # of iterations =  3.6

     negative rho (up, down):  1.136E-04 9.093E-02

     total cpu time spent up to now is       50.9 secs

     total energy              =    -550.00568609 Ry
     Harris-Foulkes estimate   =    -550.00630336 Ry
     estimated scf accuracy    <       0.00561959 Ry

     total magnetization       =     6.00 Bohr mag/cell
     absolute magnetization    =     9.69 Bohr mag/cell

     iteration #  9     ecut=    50.00 Ry     beta= 0.30
     Davidson diagonalization with overlap
     ethr =  4.47E-06,  avg # of iterations =  2.5

     negative rho (up, down):  1.581E-04 5.540E-02

     total cpu time spent up to now is       55.4 secs

     total energy              =    -550.00685929 Ry
     Harris-Foulkes estimate   =    -550.00638314 Ry
     estimated scf accuracy    <       0.00062144 Ry

     total magnetization       =     6.00 Bohr mag/cell
     absolute magnetization    =     9.55 Bohr mag/cell

     iteration # 10     ecut=    50.00 Ry     beta= 0.30
     Davidson diagonalization with overlap
     ethr =  8.88E-07,  avg # of iterations =  2.4

     negative rho (up, down):  1.329E-03 9.033E-02

     total cpu time spent up to now is       59.7 secs

     total energy              =    -550.00641583 Ry
     Harris-Foulkes estimate   =    -550.00698507 Ry
     estimated scf accuracy    <       0.00143576 Ry

     total magnetization       =     6.00 Bohr mag/cell
     absolute magnetization    =     9.54 Bohr mag/cell

     iteration # 11     ecut=    50.00 Ry     beta= 0.30
     Davidson diagonalization with overlap
     ethr =  8.88E-07,  avg # of iterations =  3.4

     negative rho (up, down):  2.154E-03 9.078E-02

     total cpu time spent up to now is       65.8 secs

     total energy              =    -550.00656019 Ry
     Harris-Foulkes estimate   =    -550.00757062 Ry
     estimated scf accuracy    <       0.00466009 Ry

     total magnetization       =     6.00 Bohr mag/cell
     absolute magnetization    =     9.71 Bohr mag/cell

     iteration # 12     ecut=    50.00 Ry     beta= 0.30
     Davidson diagonalization with overlap
     ethr =  8.88E-07,  avg # of iterations =  3.3

     negative rho (up, down):  5.758E-03 7.871E-02

     total cpu time spent up to now is       71.3 secs

     total energy              =    -550.00719272 Ry
     Harris-Foulkes estimate   =    -550.00713100 Ry
     estimated scf accuracy    <       0.00018624 Ry

     total magnetization       =     6.00 Bohr mag/cell
     absolute magnetization    =     9.62 Bohr mag/cell

     iteration # 13     ecut=    50.00 Ry     beta= 0.30
     Davidson diagonalization with overlap
     ethr =  2.66E-07,  avg # of iterations =  2.5

     negative rho (up, down):  5.741E-03 6.302E-02

     total cpu time spent up to now is       75.8 secs

     total energy              =    -550.00742973 Ry
     Harris-Foulkes estimate   =    -550.00734794 Ry
     estimated scf accuracy    <       0.00004744 Ry

     total magnetization       =     6.00 Bohr mag/cell
     absolute magnetization    =     9.73 Bohr mag/cell

     iteration # 14     ecut=    50.00 Ry     beta= 0.30
     Davidson diagonalization with overlap
     ethr =  6.78E-08,  avg # of iterations =  2.4

     negative rho (up, down):  5.196E-03 6.374E-02

     total cpu time spent up to now is       80.5 secs

     total energy              =    -550.00751520 Ry
     Harris-Foulkes estimate   =    -550.00745815 Ry
     estimated scf accuracy    <       0.00008666 Ry

     total magnetization       =     6.00 Bohr mag/cell
     absolute magnetization    =     9.75 Bohr mag/cell

     iteration # 15     ecut=    50.00 Ry     beta= 0.30
     Davidson diagonalization with overlap
     ethr =  6.78E-08,  avg # of iterations =  2.0

     negative rho (up, down):  5.307E-03 5.311E-02

     total cpu time spent up to now is       84.7 secs

     total energy              =    -550.00756160 Ry
     Harris-Foulkes estimate   =    -550.00753974 Ry
     estimated scf accuracy    <       0.00001629 Ry

     total magnetization       =     6.00 Bohr mag/cell
     absolute magnetization    =     9.79 Bohr mag/cell

     iteration # 16     ecut=    50.00 Ry     beta= 0.30
     Davidson diagonalization with overlap
     ethr =  2.33E-08,  avg # of iterations =  2.9

     negative rho (up, down):  5.147E-03 3.789E-02

     total cpu time spent up to now is       89.5 secs

     total energy              =    -550.00759082 Ry
     Harris-Foulkes estimate   =    -550.00757591 Ry
     estimated scf accuracy    <       0.00000926 Ry

     total magnetization       =     6.00 Bohr mag/cell
     absolute magnetization    =     9.81 Bohr mag/cell

     iteration # 17     ecut=    50.00 Ry     beta= 0.30
     Davidson diagonalization with overlap
     ethr =  1.32E-08,  avg # of iterations =  2.0

     negative rho (up, down):  5.199E-03 2.656E-02

     total cpu time spent up to now is       93.6 secs

     total energy              =    -550.00760585 Ry
     Harris-Foulkes estimate   =    -550.00759566 Ry
     estimated scf accuracy    <       0.00000741 Ry

     total magnetization       =     6.00 Bohr mag/cell
     absolute magnetization    =     9.82 Bohr mag/cell

     iteration # 18     ecut=    50.00 Ry     beta= 0.30
     Davidson diagonalization with overlap
     ethr =  1.06E-08,  avg # of iterations =  2.0

     negative rho (up, down):  5.223E-03 1.995E-02

     total cpu time spent up to now is       97.8 secs

     total energy              =    -550.00761643 Ry
     Harris-Foulkes estimate   =    -550.00761041 Ry
     estimated scf accuracy    <       0.00000719 Ry

     total magnetization       =     6.00 Bohr mag/cell
     absolute magnetization    =     9.83 Bohr mag/cell

     iteration # 19     ecut=    50.00 Ry     beta= 0.30
     Davidson diagonalization with overlap
     ethr =  1.03E-08,  avg # of iterations =  2.0

     negative rho (up, down):  5.232E-03 1.531E-02

     total cpu time spent up to now is      102.2 secs

     total energy              =    -550.00761416 Ry
     Harris-Foulkes estimate   =    -550.00761778 Ry
     estimated scf accuracy    <       0.00000719 Ry

     total magnetization       =     6.00 Bohr mag/cell
     absolute magnetization    =     9.83 Bohr mag/cell

     iteration # 20     ecut=    50.00 Ry     beta= 0.30
     Davidson diagonalization with overlap
     ethr =  1.03E-08,  avg # of iterations =  2.0

     negative rho (up, down):  5.229E-03 1.271E-02

     total cpu time spent up to now is      106.4 secs

     total energy              =    -550.00761949 Ry
     Harris-Foulkes estimate   =    -550.00761460 Ry
     estimated scf accuracy    <       0.00000719 Ry

     total magnetization       =     6.00 Bohr mag/cell
     absolute magnetization    =     9.83 Bohr mag/cell

     iteration # 21     ecut=    50.00 Ry     beta= 0.30
     Davidson diagonalization with overlap
     ethr =  1.03E-08,  avg # of iterations =  2.0

     negative rho (up, down):  5.221E-03 1.011E-02

     total cpu time spent up to now is      110.5 secs

     total energy              =    -550.00761149 Ry
     Harris-Foulkes estimate   =    -550.00762056 Ry
     estimated scf accuracy    <       0.00000724 Ry

     total magnetization       =     6.00 Bohr mag/cell
     absolute magnetization    =     9.83 Bohr mag/cell

     iteration # 22     ecut=    50.00 Ry     beta= 0.30
     Davidson diagonalization with overlap
     ethr =  1.03E-08,  avg # of iterations =  2.0

     negative rho (up, down):  5.099E-03 9.373E-03

     total cpu time spent up to now is      114.6 secs

     total energy              =    -550.00761671 Ry
     Harris-Foulkes estimate   =    -550.00761329 Ry
     estimated scf accuracy    <       0.00000719 Ry

     total magnetization       =     6.00 Bohr mag/cell
     absolute magnetization    =     9.83 Bohr mag/cell

     iteration # 23     ecut=    50.00 Ry     beta= 0.30
     Davidson diagonalization with overlap
     ethr =  1.03E-08,  avg # of iterations =  2.0

     negative rho (up, down):  5.282E-03 9.027E-03

     total cpu time spent up to now is      118.6 secs

     total energy              =    -550.00761116 Ry
     Harris-Foulkes estimate   =    -550.00761727 Ry
     estimated scf accuracy    <       0.00000725 Ry

     total magnetization       =     6.00 Bohr mag/cell
     absolute magnetization    =     9.83 Bohr mag/cell

     iteration # 24     ecut=    50.00 Ry     beta= 0.30
     Davidson diagonalization with overlap
     ethr =  1.03E-08,  avg # of iterations =  2.0

     negative rho (up, down):  5.287E-03 8.857E-03

     total cpu time spent up to now is      122.7 secs

     total energy              =    -550.00761190 Ry
     Harris-Foulkes estimate   =    -550.00761213 Ry
     estimated scf accuracy    <       0.00000718 Ry

     total magnetization       =     6.00 Bohr mag/cell
     absolute magnetization    =     9.83 Bohr mag/cell

     iteration # 25     ecut=    50.00 Ry     beta= 0.30
     Davidson diagonalization with overlap
     ethr =  1.03E-08,  avg # of iterations =  1.0

     negative rho (up, down):  5.314E-03 8.521E-03

     total cpu time spent up to now is      126.5 secs

     total energy              =    -550.00761339 Ry
     Harris-Foulkes estimate   =    -550.00761191 Ry
     estimated scf accuracy    <       0.00000718 Ry

     total magnetization       =     6.00 Bohr mag/cell
     absolute magnetization    =     9.83 Bohr mag/cell

     iteration # 26     ecut=    50.00 Ry     beta= 0.30
     Davidson diagonalization with overlap
     ethr =  1.03E-08,  avg # of iterations =  1.0

     negative rho (up, down):  5.304E-03 8.898E-03

     total cpu time spent up to now is      130.7 secs

     total energy              =    -550.00760717 Ry
     Harris-Foulkes estimate   =    -550.00761347 Ry
     estimated scf accuracy    <       0.00000716 Ry

     total magnetization       =     6.00 Bohr mag/cell
     absolute magnetization    =     9.83 Bohr mag/cell

     iteration # 27     ecut=    50.00 Ry     beta= 0.30
     Davidson diagonalization with overlap
     ethr =  1.02E-08,  avg # of iterations =  2.0

     negative rho (up, down):  5.324E-03 8.401E-03

     total cpu time spent up to now is      135.0 secs

     total energy              =    -550.00761363 Ry
     Harris-Foulkes estimate   =    -550.00760808 Ry
     estimated scf accuracy    <       0.00000715 Ry

     total magnetization       =     6.00 Bohr mag/cell
     absolute magnetization    =     9.82 Bohr mag/cell

     iteration # 28     ecut=    50.00 Ry     beta= 0.30
     Davidson diagonalization with overlap
     ethr =  1.02E-08,  avg # of iterations =  2.0

     negative rho (up, down):  5.309E-03 8.680E-03

     total cpu time spent up to now is      139.1 secs

     total energy              =    -550.00761004 Ry
     Harris-Foulkes estimate   =    -550.00761525 Ry
     estimated scf accuracy    <       0.00000716 Ry

     total magnetization       =     6.00 Bohr mag/cell
     absolute magnetization    =     9.83 Bohr mag/cell

     iteration # 29     ecut=    50.00 Ry     beta= 0.30
     Davidson diagonalization with overlap
     ethr =  1.02E-08,  avg # of iterations =  2.0

     negative rho (up, down):  5.302E-03 8.549E-03

     total cpu time spent up to now is      143.2 secs

     total energy              =    -550.00761242 Ry
     Harris-Foulkes estimate   =    -550.00761070 Ry
     estimated scf accuracy    <       0.00000715 Ry

     total magnetization       =     6.00 Bohr mag/cell
     absolute magnetization    =     9.83 Bohr mag/cell

     iteration # 30     ecut=    50.00 Ry     beta= 0.30
     Davidson diagonalization with overlap
     ethr =  1.02E-08,  avg # of iterations =  1.0

     negative rho (up, down):  5.299E-03 9.236E-03

     total cpu time spent up to now is      147.1 secs

     total energy              =    -550.00760206 Ry
     Harris-Foulkes estimate   =    -550.00761253 Ry
     estimated scf accuracy    <       0.00000713 Ry

     total magnetization       =     6.00 Bohr mag/cell
     absolute magnetization    =     9.83 Bohr mag/cell

     iteration # 31     ecut=    50.00 Ry     beta= 0.30
     Davidson diagonalization with overlap
     ethr =  1.02E-08,  avg # of iterations =  2.0

     negative rho (up, down):  5.161E-03 9.348E-03

     total cpu time spent up to now is      151.2 secs

     total energy              =    -550.00760826 Ry
     Harris-Foulkes estimate   =    -550.00760431 Ry
     estimated scf accuracy    <       0.00000725 Ry

     total magnetization       =     6.00 Bohr mag/cell
     absolute magnetization    =     9.82 Bohr mag/cell

     iteration # 32     ecut=    50.00 Ry     beta= 0.30
     Davidson diagonalization with overlap
     ethr =  1.02E-08,  avg # of iterations =  3.0

     negative rho (up, down):  4.846E-03 9.441E-03

     total cpu time spent up to now is      155.8 secs

     total energy              =    -550.00760881 Ry
     Harris-Foulkes estimate   =    -550.00762922 Ry
     estimated scf accuracy    <       0.00000796 Ry

     total magnetization       =     6.00 Bohr mag/cell
     absolute magnetization    =     9.84 Bohr mag/cell

     iteration # 33     ecut=    50.00 Ry     beta= 0.30
     Davidson diagonalization with overlap
     ethr =  1.02E-08,  avg # of iterations =  2.5

     negative rho (up, down):  5.236E-03 9.473E-03

     total cpu time spent up to now is      160.4 secs

     total energy              =    -550.00760142 Ry
     Harris-Foulkes estimate   =    -550.00761515 Ry
     estimated scf accuracy    <       0.00000766 Ry

     total magnetization       =     6.00 Bohr mag/cell
     absolute magnetization    =     9.83 Bohr mag/cell

     iteration # 34     ecut=    50.00 Ry     beta= 0.30
     Davidson diagonalization with overlap
     ethr =  1.02E-08,  avg # of iterations =  2.0

     negative rho (up, down):  5.268E-03 9.001E-03

     total cpu time spent up to now is      164.8 secs

     total energy              =    -550.00761002 Ry
     Harris-Foulkes estimate   =    -550.00760505 Ry
     estimated scf accuracy    <       0.00000773 Ry

     total magnetization       =     6.00 Bohr mag/cell
     absolute magnetization    =     9.82 Bohr mag/cell

     iteration # 35     ecut=    50.00 Ry     beta= 0.30
     Davidson diagonalization with overlap
     ethr =  1.02E-08,  avg # of iterations =  2.0

     negative rho (up, down):  5.397E-03 9.964E-03

     total cpu time spent up to now is      168.8 secs

     total energy              =    -550.00760797 Ry
     Harris-Foulkes estimate   =    -550.00761137 Ry
     estimated scf accuracy    <       0.00000786 Ry

     total magnetization       =     6.00 Bohr mag/cell
     absolute magnetization    =     9.83 Bohr mag/cell

     iteration # 36     ecut=    50.00 Ry     beta= 0.30
     Davidson diagonalization with overlap
     ethr =  1.02E-08,  avg # of iterations =  2.0

     negative rho (up, down):  5.378E-03 9.753E-03

     total cpu time spent up to now is      172.9 secs

     total energy              =    -550.00758565 Ry
     Harris-Foulkes estimate   =    -550.00760831 Ry
     estimated scf accuracy    <       0.00000775 Ry

     total magnetization       =     6.00 Bohr mag/cell
     absolute magnetization    =     9.82 Bohr mag/cell

     iteration # 37     ecut=    50.00 Ry     beta= 0.30
     Davidson diagonalization with overlap
     ethr =  1.02E-08,  avg # of iterations =  3.0

     negative rho (up, down):  5.484E-03 8.363E-03

     total cpu time spent up to now is      177.7 secs

     total energy              =    -550.00758899 Ry
     Harris-Foulkes estimate   =    -550.00759346 Ry
     estimated scf accuracy    <       0.00000729 Ry

     total magnetization       =     6.00 Bohr mag/cell
     absolute magnetization    =     9.81 Bohr mag/cell

     iteration # 38     ecut=    50.00 Ry     beta= 0.30
     Davidson diagonalization with overlap
     ethr =  1.02E-08,  avg # of iterations =  3.0

     negative rho (up, down):  5.373E-03 1.168E-02

     total cpu time spent up to now is      182.7 secs

     total energy              =    -550.00748483 Ry
     Harris-Foulkes estimate   =    -550.00762883 Ry
     estimated scf accuracy    <       0.00000761 Ry

     total magnetization       =     6.00 Bohr mag/cell
     absolute magnetization    =     9.84 Bohr mag/cell

     iteration # 39     ecut=    50.00 Ry     beta= 0.30
     Davidson diagonalization with overlap
     ethr =  1.02E-08,  avg # of iterations =  3.0

     negative rho (up, down):  5.372E-03 1.175E-02

     total cpu time spent up to now is      187.8 secs

     total energy              =    -550.00756058 Ry
     Harris-Foulkes estimate   =    -550.00757603 Ry
     estimated scf accuracy    <       0.00000692 Ry

     total magnetization       =     6.00 Bohr mag/cell
     absolute magnetization    =     9.79 Bohr mag/cell

     iteration # 40     ecut=    50.00 Ry     beta= 0.30
     Davidson diagonalization with overlap
     ethr =  9.89E-09,  avg # of iterations =  2.0

     negative rho (up, down):  5.488E-03 5.211E-02

     total cpu time spent up to now is      191.9 secs

     total energy              =    -550.00346038 Ry
     Harris-Foulkes estimate   =    -550.00756496 Ry
     estimated scf accuracy    <       0.00000677 Ry

     total magnetization       =     6.00 Bohr mag/cell
     absolute magnetization    =     9.78 Bohr mag/cell

     iteration # 41     ecut=    50.00 Ry     beta= 0.30
     Davidson diagonalization with overlap
     ethr =  9.68E-09,  avg # of iterations =  5.7

     negative rho (up, down):  5.378E-03 7.044E-02

     total cpu time spent up to now is      198.6 secs

     total energy              =    -550.00493334 Ry
     Harris-Foulkes estimate   =    -550.00727509 Ry
     estimated scf accuracy    <       0.00000523 Ry

     total magnetization       =     6.00 Bohr mag/cell
     absolute magnetization    =     9.58 Bohr mag/cell

     iteration # 42     ecut=    50.00 Ry     beta= 0.30
     Davidson diagonalization with overlap
     ethr =  7.47E-09,  avg # of iterations =  5.9

     negative rho (up, down):  5.319E-03 7.640E-02

     total cpu time spent up to now is      205.5 secs

     total energy              =    -550.00569793 Ry
     Harris-Foulkes estimate   =    -550.00710718 Ry
     estimated scf accuracy    <       0.00000339 Ry

     total magnetization       =     6.00 Bohr mag/cell
     absolute magnetization    =     9.82 Bohr mag/cell

     iteration # 43     ecut=    50.00 Ry     beta= 0.30
     Davidson diagonalization with overlap
     ethr =  4.84E-09,  avg # of iterations =  5.4

     negative rho (up, down):  5.372E-03 6.969E-02

     total cpu time spent up to now is      212.0 secs

     total energy              =    -550.00658937 Ry
     Harris-Foulkes estimate   =    -550.00702061 Ry
     estimated scf accuracy    <       0.00000162 Ry

     total magnetization       =     6.00 Bohr mag/cell
     absolute magnetization    =    10.03 Bohr mag/cell

     iteration # 44     ecut=    50.00 Ry     beta= 0.30
     Davidson diagonalization with overlap
     ethr =  2.31E-09,  avg # of iterations =  5.2

     negative rho (up, down):  5.351E-03 7.089E-02

     total cpu time spent up to now is      218.6 secs

     total energy              =    -550.00612412 Ry
     Harris-Foulkes estimate   =    -550.00699864 Ry
     estimated scf accuracy    <       0.00000025 Ry

     total magnetization       =     6.00 Bohr mag/cell
     absolute magnetization    =    10.15 Bohr mag/cell

     iteration # 45     ecut=    50.00 Ry     beta= 0.30
     Davidson diagonalization with overlap
     ethr =  3.63E-10,  avg # of iterations =  6.9

     negative rho (up, down):  5.405E-03 2.629E-02

     total cpu time spent up to now is      225.8 secs

     total energy              =    -550.00582471 Ry
     Harris-Foulkes estimate   =    -550.00700533 Ry
     estimated scf accuracy    <       0.00000065 Ry

     total magnetization       =     6.00 Bohr mag/cell
     absolute magnetization    =    10.34 Bohr mag/cell

     iteration # 46     ecut=    50.00 Ry     beta= 0.30
     Davidson diagonalization with overlap
     ethr =  3.63E-10,  avg # of iterations =  7.6

     negative rho (up, down):  5.317E-03 5.595E-02

     total cpu time spent up to now is      233.3 secs

     total energy              =    -550.00443150 Ry
     Harris-Foulkes estimate   =    -550.00700911 Ry
     estimated scf accuracy    <       0.00000028 Ry

     total magnetization       =     6.00 Bohr mag/cell
     absolute magnetization    =    10.13 Bohr mag/cell

     iteration # 47     ecut=    50.00 Ry     beta= 0.30
     Davidson diagonalization with overlap
     ethr =  3.63E-10,  avg # of iterations =  7.6

     negative rho (up, down):  5.332E-03 2.762E-02

     total cpu time spent up to now is      241.1 secs

     total energy              =    -550.00670903 Ry
     Harris-Foulkes estimate   =    -550.00704000 Ry
     estimated scf accuracy    <       0.00000216 Ry

     total magnetization       =     6.00 Bohr mag/cell
     absolute magnetization    =    10.44 Bohr mag/cell

     iteration # 48     ecut=    50.00 Ry     beta= 0.30
     Davidson diagonalization with overlap
     ethr =  3.63E-10,  avg # of iterations =  6.5

     negative rho (up, down):  5.341E-03 1.315E-02

     total cpu time spent up to now is      248.3 secs

     total energy              =    -550.00683865 Ry
     Harris-Foulkes estimate   =    -550.00701109 Ry
     estimated scf accuracy    <       0.00000048 Ry

     total magnetization       =     6.00 Bohr mag/cell
     absolute magnetization    =    10.33 Bohr mag/cell

     iteration # 49     ecut=    50.00 Ry     beta= 0.30
     Davidson diagonalization with overlap
     ethr =  3.63E-10,  avg # of iterations =  5.6

     negative rho (up, down):  5.260E-03 1.028E-02
 
     Magnetic moment per site:
     atom:    1    charge:   12.4440    magn:    3.5528    constr:    0.0000
     atom:    2    charge:   12.4440    magn:    3.5528    constr:    0.0000
     atom:    3    charge:    4.1542    magn:   -0.1937    constr:    0.0000
     atom:    4    charge:    4.1542    magn:   -0.1937    constr:    0.0000
     atom:    5    charge:    4.1542    magn:   -0.1937    constr:    0.0000
     atom:    6    charge:    4.1542    magn:   -0.1937    constr:    0.0000
     atom:    7    charge:    4.1542    magn:   -0.1937    constr:    0.0000
     atom:    8    charge:    4.1542    magn:   -0.1937    constr:    0.0000

     total cpu time spent up to now is      254.5 secs

     End of self-consistent calculation
 --- enter write_ns ---
 LDA+U parameters:
U( 1)     =  4.26870000
alpha( 1) =  0.00000000
atom    1   Tr[ns(na)] (up, down, total) =   4.43341  0.62748  5.06089
   spin  1
    eigenvalues: 
  0.723  0.723  0.995  0.996  0.996
    eigenvectors:
  0.000  0.000  1.000  0.000  0.000
  0.099  0.579  0.000  0.053  0.268
  0.579  0.099  0.000  0.268  0.053
  0.047  0.274  0.000  0.112  0.566
  0.274  0.047  0.000  0.566  0.112
    occupations:
  0.995 -0.000 -0.000 -0.000 -0.000
 -0.000  0.811 -0.000 -0.127  0.000
 -0.000 -0.000  0.811  0.000  0.127
 -0.000 -0.127  0.000  0.908  0.000
 -0.000  0.000  0.127  0.000  0.908
   spin  2
    eigenvalues: 
  0.048  0.053  0.053  0.237  0.237
    eigenvectors:
  1.000  0.000  0.000  0.000  0.000
  0.000  0.055  0.271  0.103  0.570
  0.000  0.271  0.055  0.570  0.103
  0.000  0.114  0.559  0.050  0.276
  0.000  0.559  0.114  0.276  0.050
    occupations:
  0.048 -0.000 -0.000 -0.000 -0.000
 -0.000  0.177 -0.000  0.087 -0.000
 -0.000 -0.000  0.177 -0.000 -0.087
 -0.000  0.087 -0.000  0.113  0.000
 -0.000 -0.000 -0.087  0.000  0.113
atomic mag. moment =     3.805923
atom    2   Tr[ns(na)] (up, down, total) =   4.43341  0.62748  5.06089
   spin  1
    eigenvalues: 
  0.723  0.723  0.995  0.996  0.996
    eigenvectors:
  0.000  0.000  1.000  0.000  0.000
  0.099  0.579  0.000  0.053  0.268
  0.579  0.099  0.000  0.268  0.053
  0.047  0.274  0.000  0.112  0.566
  0.274  0.047  0.000  0.566  0.112
    occupations:
  0.995 -0.000 -0.000 -0.000 -0.000
 -0.000  0.811 -0.000 -0.127 -0.000
 -0.000 -0.000  0.811 -0.000  0.127
 -0.000 -0.127 -0.000  0.908  0.000
 -0.000 -0.000  0.127  0.000  0.908
   spin  2
    eigenvalues: 
  0.048  0.053  0.053  0.237  0.237
    eigenvectors:
  1.000  0.000  0.000  0.000  0.000
  0.000  0.055  0.271  0.103  0.570
  0.000  0.271  0.055  0.570  0.103
  0.000  0.114  0.559  0.050  0.276
  0.000  0.559  0.114  0.276  0.050
    occupations:
  0.048 -0.000 -0.000 -0.000 -0.000
 -0.000  0.177 -0.000  0.087  0.000
 -0.000 -0.000  0.177  0.000 -0.087
 -0.000  0.087  0.000  0.113  0.000
 -0.000  0.000 -0.087  0.000  0.113
atomic mag. moment =     3.805923
N of occupied +U levels =   10.121779
 --- exit write_ns ---

 ------ SPIN UP ------------


          k = 0.0000 0.0000 0.0000 ( 35867 PWs)   bands (ev):

   -75.1394 -75.1392 -46.5964 -46.5957 -46.5896 -46.5896 -46.5874 -46.5874
   -15.2560 -14.5090 -14.3212 -14.3212 -14.2245 -14.2245  -7.2829  -7.1447
    -6.7799  -6.7799  -6.6908  -6.6908  -5.8954  -5.8954  -5.5892  -5.5426
    -5.4882  -5.4191  -5.4191  -4.7681  -4.7681  -4.2083  -4.2083  -4.0331
    -3.9616  -3.5365  -3.2623  -3.2623  -2.6882  -2.6882  -1.7541  -1.7541
    -1.2804  -1.2804

          k = 0.0000 0.1890 0.0000 ( 35788 PWs)   bands (ev):

   -75.1394 -75.1392 -46.5963 -46.5957 -46.5896 -46.5895 -46.5875 -46.5873
   -15.2038 -14.4869 -14.3860 -14.3346 -14.2361 -14.2349  -7.2681  -7.1001
    -6.8575  -6.8499  -6.5670  -6.5618  -5.9335  -5.8708  -5.7476  -5.5495
    -5.4964  -5.3628  -5.2558  -4.9202  -4.7315  -4.2513  -4.1324  -3.9168
    -3.8971  -3.4660  -3.2842  -3.2218  -2.9543  -2.7378  -1.7548  -1.7328
    -1.4677  -1.3254

          k = 0.0000 0.3780 0.0000 ( 35798 PWs)   bands (ev):

   -75.1394 -75.1393 -46.5962 -46.5958 -46.5897 -46.5892 -46.5877 -46.5872
   -15.0632 -14.5511 -14.4285 -14.3581 -14.2734 -14.2598  -7.3230  -6.9649
    -6.8979  -6.7196  -6.4963  -6.3442  -6.0124  -5.9164  -5.8452  -5.7089
    -5.4292  -5.3466  -5.3065  -4.8184  -4.6346  -4.3114  -4.1563  -3.7785
    -3.7090  -3.3629  -3.3469  -3.2977  -3.2004  -2.8341  -1.7457  -1.7059
    -1.5962  -1.4704

          k = 0.0000-0.5670 0.0000 ( 35860 PWs)   bands (ev):

   -75.1394 -75.1393 -46.5962 -46.5959 -46.5897 -46.5890 -46.5879 -46.5872
   -14.9357 -14.6908 -14.3770 -14.3615 -14.3234 -14.2715  -7.3707  -6.9091
    -6.8540  -6.5934  -6.4436  -6.1213  -6.1089  -6.0285  -5.9403  -5.7829
    -5.4764  -5.3731  -5.3360  -4.6072  -4.5986  -4.2997  -4.2754  -3.7772
    -3.5651  -3.5208  -3.3867  -3.3491  -3.0566  -2.8853  -1.7320  -1.7225
    -1.5745  -1.5268

          k = 0.1637 0.2835 0.0000 ( 35799 PWs)   bands (ev):

   -75.1394 -75.1393 -46.5963 -46.5958 -46.5897 -46.5892 -46.5877 -46.5872
   -15.1064 -14.4929 -14.4468 -14.3647 -14.2559 -14.2548  -7.2230  -7.0902
    -6.9457  -6.6868  -6.5571  -6.3983  -6.0089  -5.8983  -5.7959  -5.5923
    -5.4961  -5.3838  -5.1251  -5.0580  -4.5589  -4.3972  -3.9919  -3.8856
    -3.7957  -3.3587  -3.2912  -3.2456  -3.2000  -2.8209  -1.7451  -1.6988
    -1.6639  -1.3497

          k = 0.1637 0.4725 0.0000 ( 35856 PWs)   bands (ev):

   -75.1394 -75.1393 -46.5962 -46.5959 -46.5897 -46.5889 -46.5880 -46.5872
   -14.9470 -14.6606 -14.4033 -14.3742 -14.3015 -14.2742  -7.2477  -6.9990
    -6.8618  -6.5976  -6.5429  -6.2339  -6.0993  -6.0073  -5.7586  -5.7067
    -5.5512  -5.4464  -5.1715  -4.8654  -4.6221  -4.2662  -4.0508  -3.8103
    -3.7520  -3.5284  -3.3548  -3.2493  -3.0487  -2.9092  -1.7500  -1.6818
    -1.6215  -1.3949

          k = 0.3274 0.5670 0.0000 ( 35811 PWs)   bands (ev):

   -75.1393 -75.1393 -46.5960 -46.5960 -46.5898 -46.5884 -46.5884 -46.5871
   -14.7968 -14.7968 -14.4324 -14.3261 -14.3261 -14.2963  -7.1197  -6.9328
    -6.9328  -6.6141  -6.6141  -6.1697  -6.1697  -6.0257  -5.7013  -5.6631
    -5.5524  -5.5524  -4.9732  -4.8945  -4.8945  -3.9606  -3.9606  -3.9582
    -3.8649  -3.6718  -3.2561  -3.2561  -2.9555  -2.9555  -1.7658  -1.6184
    -1.6184  -1.3141

 ------ SPIN DOWN ----------


          k = 0.0000 0.0000 0.0000 ( 35867 PWs)   bands (ev):

   -71.4801 -71.4798 -42.8017 -42.8006 -42.7783 -42.7783 -42.7752 -42.7752
   -15.3941 -14.7112 -14.4662 -14.4662 -14.2776 -14.2776  -6.7516  -6.1800
    -5.7419  -5.7419  -5.6399  -5.4441  -5.4441  -4.6548  -4.3287  -4.3287
    -4.1388  -4.0418  -4.0418  -3.7033  -3.2654  -3.2654  -2.9096  -2.9096
     1.2337   1.2337   1.3305   1.3305   1.4365   1.4648   1.8083   1.8083
     1.8264   1.8264

          k = 0.0000 0.1890 0.0000 ( 35788 PWs)   bands (ev):

   -71.4801 -71.4798 -42.8016 -42.8006 -42.7784 -42.7782 -42.7753 -42.7751
   -15.3431 -14.6785 -14.5364 -14.4907 -14.2900 -14.2803  -6.7282  -6.1706
    -5.8526  -5.7609  -5.5796  -5.4898  -5.0663  -4.5038  -4.4192  -4.3800
    -4.0582  -4.0577  -4.0055  -3.6674  -3.3581  -3.3016  -3.2297  -2.9838
     1.2119   1.2232   1.3056   1.3435   1.4386   1.5766   1.6948   1.7556
     1.8170   1.8357

          k = 0.0000 0.3780 0.0000 ( 35798 PWs)   bands (ev):

   -71.4800 -71.4799 -42.8014 -42.8008 -42.7785 -42.7778 -42.7758 -42.7750
   -15.2039 -14.7093 -14.5948 -14.5327 -14.3401 -14.2903  -6.6603  -6.1326
    -5.9948  -5.6795  -5.4496  -5.2486  -4.9044  -4.5373  -4.4651  -4.1598
    -4.1588  -4.0093  -3.9517  -3.8444  -3.6198  -3.4049  -3.3027  -3.0911
     1.1608   1.2324   1.2452   1.3447   1.3573   1.5792   1.5794   1.8093
     1.8094   1.9095

          k = 0.0000-0.5670 0.0000 ( 35860 PWs)   bands (ev):

   -71.4800 -71.4799 -42.8013 -42.8009 -42.7786 -42.7775 -42.7760 -42.7750
   -15.0713 -14.8577 -14.5578 -14.5178 -14.3965 -14.2964  -6.6284  -6.0822
    -6.0441  -5.3795  -5.3672  -5.3556  -4.9665  -4.6347  -4.4213  -4.2284
    -4.2066  -4.1526  -3.7556  -3.7410  -3.6577  -3.5411  -3.3521  -3.0279
     1.0687   1.2075   1.2557   1.3273   1.3344   1.4738   1.5918   1.8237
     1.9012   1.9505

          k = 0.1637 0.2835 0.0000 ( 35799 PWs)   bands (ev):

   -71.4800 -71.4799 -42.8015 -42.8007 -42.7785 -42.7779 -42.7757 -42.7750
   -15.2473 -14.6458 -14.6199 -14.5366 -14.3238 -14.2848  -6.6562  -6.1636
    -5.9126  -5.8066  -5.4806  -5.3182  -4.7872  -4.6860  -4.4170  -4.2428
    -4.0824  -3.9748  -3.9400  -3.8647  -3.4750  -3.4058  -3.3120  -3.0967
     1.1884   1.2495   1.2984   1.3034   1.3570   1.5899   1.6058   1.7724
     1.8474   1.8726

          k = 0.1637 0.4725 0.0000 ( 35856 PWs)   bands (ev):

   -71.4800 -71.4799 -42.8013 -42.8009 -42.7786 -42.7774 -42.7762 -42.7750
   -15.0875 -14.8157 -14.5879 -14.5244 -14.3879 -14.2947  -6.5384  -6.1420
    -5.9470  -5.6736  -5.3992  -5.1994  -5.0658  -4.6206  -4.4089  -4.2872
    -4.2111  -4.0083  -3.8238  -3.7091  -3.5828  -3.4860  -3.2830  -3.1178
     1.1413   1.2370   1.2497   1.2906   1.3517   1.4545   1.5105   1.8569
     1.9364   1.9405

          k = 0.3274 0.5670 0.0000 ( 35811 PWs)   bands (ev):

   -71.4799 -71.4799 -42.8011 -42.8011 -42.7787 -42.7768 -42.7768 -42.7749
   -14.9409 -14.9409 -14.6298 -14.4503 -14.4503 -14.2997  -6.2899  -6.2899
    -5.7267  -5.7267  -5.6634  -5.0678  -5.0293  -5.0293  -4.3746  -4.3193
    -4.0322  -3.8925  -3.8925  -3.5770  -3.5770  -3.5175  -3.1983  -3.1983
     1.1901   1.1901   1.2760   1.3101   1.3101   1.3424   1.4946   1.9024
     1.9792   1.9792

     the Fermi energy is    -2.2140 ev

!    total energy              =    -550.00700276 Ry
     Harris-Foulkes estimate   =    -550.00700276 Ry
     estimated scf accuracy    <       0.00000005 Ry

     The total energy is the sum of the following terms:

     one-electron contribution =   -1931.74881122 Ry
     hartree contribution      =     969.23949529 Ry
     xc contribution           =    -139.45374095 Ry
     ewald contribution        =     551.66718377 Ry
     Hubbard energy            =       0.28887035 Ry
     smearing contrib. (-TS)   =      -0.00000000 Ry

     total magnetization       =     6.00 Bohr mag/cell
     absolute magnetization    =    10.25 Bohr mag/cell

     convergence has been achieved in  49 iterations

     negative rho (up, down):  5.260E-03 1.028E-02

     Forces acting on atoms (cartesian axes, Ry/au):

     atom    1 type  1   force =     0.00000000    0.00000000   -0.00001434
     atom    2 type  1   force =     0.00000000   -0.00000000   -0.00001434
     atom    3 type  2   force =    -0.01027833   -0.00000000   -0.01623780
     atom    4 type  2   force =     0.00513917   -0.00890130   -0.01623780
     atom    5 type  2   force =     0.00513917    0.00890130   -0.01623780
     atom    6 type  2   force =     0.01028326   -0.00000000    0.01624736
     atom    7 type  2   force =    -0.00514163    0.00890556    0.01624736
     atom    8 type  2   force =    -0.00514163   -0.00890556    0.01624736

     Total force =     0.047086     Total SCF correction =     0.000144


     Computing stress (Cartesian axis) and pressure


     negative rho (up, down):  5.260E-03 1.028E-02
          total   stress  (Ry/bohr**3)                   (kbar)     P=    7.71
   0.00005503  -0.00000000   0.00000000          8.10     -0.00      0.00
  -0.00000000   0.00005503  -0.00000000         -0.00      8.10     -0.00
   0.00000000   0.00000000   0.00004708          0.00      0.00      6.93


     BFGS Geometry Optimization

     number of scf cycles    =   1
     number of bfgs steps    =   0

     enthalpy new            =    -550.0070027557 Ry

     new trust radius        =       0.0213145310 bohr
     new conv_thr            =       0.0000001000 Ry

     new unit-cell volume =   6016.34673 a.u.^3 (   891.53059 Ang^3 )
     density =      1.61190 g/cm^3

CELL_PARAMETERS (alat= 12.97674935)
   1.019591285  -0.000000000   0.000000000
  -0.509795642   0.882991954   0.000000000
   0.000000000   0.000000000   3.058103976

ATOMIC_POSITIONS (crystal)
Cr       0.333333330   0.666666670   0.314397972
Cr      -0.000000000  -0.000000000   0.314397972
I        0.024403936   0.333333330   0.239211650
I        0.666666670   0.691070606   0.239211650
I        0.308929394  -0.024403936   0.239211650
I        0.308931838   0.333333330   0.389581346
I        0.666666670  -0.024401492   0.389581346
I        0.024401492   0.691068162   0.389581346



     Writing output data file cri3.save/
     NEW-OLD atomic charge density approx. for the potential

     negative rho (up, down):  5.251E-03 4.464E-03
     extrapolated charge   70.19222, renormalised to   70.00000
 Atomic wfc used for LDA+U Projector are NOT orthogonalized

     total cpu time spent up to now is      272.5 secs

     Self-consistent Calculation

     iteration #  1     ecut=    50.00 Ry     beta= 0.30
     Davidson diagonalization with overlap
     c_bands:  1 eigenvalues not converged
     ethr =  1.00E-06,  avg # of iterations = 11.0
 --- enter write_ns ---
 LDA+U parameters:
U( 1)     =  4.26870000
alpha( 1) =  0.00000000
atom    1   Tr[ns(na)] (up, down, total) =   4.29025  0.55839  4.84864
   spin  1
    eigenvalues: 
  0.655  0.655  0.993  0.994  0.994
    eigenvectors:
  0.000  0.000  1.000  0.000  0.000
  0.099  0.581  0.000  0.053  0.267
  0.581  0.099  0.000  0.267  0.053
  0.047  0.273  0.000  0.113  0.567
  0.273  0.047  0.000  0.567  0.113
    occupations:
  0.993 -0.000 -0.000 -0.000 -0.000
 -0.000  0.763 -0.000 -0.158  0.000
 -0.000 -0.000  0.763  0.000  0.158
 -0.000 -0.158  0.000  0.885  0.000
 -0.000  0.000  0.158  0.000  0.885
   spin  2
    eigenvalues: 
  0.043  0.047  0.047  0.211  0.211
    eigenvectors:
  1.000  0.000  0.000  0.000  0.000
  0.000  0.055  0.269  0.104  0.573
  0.000  0.269  0.055  0.573  0.104
  0.000  0.115  0.562  0.050  0.274
  0.000  0.562  0.115  0.274  0.050
    occupations:
  0.043 -0.000 -0.000 -0.000 -0.000
 -0.000  0.158 -0.000  0.077 -0.000
 -0.000 -0.000  0.158 -0.000 -0.077
 -0.000  0.077 -0.000  0.100  0.000
 -0.000 -0.000 -0.077  0.000  0.100
atomic mag. moment =     3.731858
atom    2   Tr[ns(na)] (up, down, total) =   4.29025  0.55839  4.84864
   spin  1
    eigenvalues: 
  0.655  0.655  0.993  0.994  0.994
    eigenvectors:
  0.000  0.000  1.000  0.000  0.000
  0.099  0.581  0.000  0.053  0.267
  0.581  0.099  0.000  0.267  0.053
  0.047  0.273  0.000  0.113  0.567
  0.273  0.047  0.000  0.567  0.113
    occupations:
  0.993 -0.000 -0.000 -0.000 -0.000
 -0.000  0.763 -0.000 -0.158 -0.000
 -0.000 -0.000  0.763 -0.000  0.158
 -0.000 -0.158 -0.000  0.885  0.000
 -0.000 -0.000  0.158  0.000  0.885
   spin  2
    eigenvalues: 
  0.043  0.047  0.047  0.211  0.211
    eigenvectors:
  1.000  0.000  0.000  0.000  0.000
  0.000  0.055  0.269  0.104  0.573
  0.000  0.269  0.055  0.573  0.104
  0.000  0.115  0.562  0.050  0.274
  0.000  0.562  0.115  0.274  0.050
    occupations:
  0.043 -0.000 -0.000 -0.000 -0.000
 -0.000  0.158 -0.000  0.077  0.000
 -0.000 -0.000  0.158  0.000 -0.077
 -0.000  0.077  0.000  0.100  0.000
 -0.000  0.000 -0.077  0.000  0.100
atomic mag. moment =     3.731858
N of occupied +U levels =    9.697281
 --- exit write_ns ---

     negative rho (up, down):  7.487E-03 1.700E-02

     total cpu time spent up to now is      281.7 secs

     total energy              =    -549.98724071 Ry
     Harris-Foulkes estimate   =    -544.97883730 Ry
     estimated scf accuracy    <       0.09338280 Ry

     total magnetization       =     6.00 Bohr mag/cell
     absolute magnetization    =     9.88 Bohr mag/cell

     iteration #  2     ecut=    50.00 Ry     beta= 0.30
     Davidson diagonalization with overlap
     ethr =  1.33E-04,  avg # of iterations =  4.2

     negative rho (up, down):  7.243E-03 1.545E-02

     total cpu time spent up to now is      287.1 secs

     total energy              =    -550.00840791 Ry
     Harris-Foulkes estimate   =    -550.00735926 Ry
     estimated scf accuracy    <       0.00640347 Ry

     total magnetization       =     6.00 Bohr mag/cell
     absolute magnetization    =    10.23 Bohr mag/cell

     iteration #  3     ecut=    50.00 Ry     beta= 0.30
     Davidson diagonalization with overlap
     ethr =  9.15E-06,  avg # of iterations =  2.9

     negative rho (up, down):  6.569E-03 1.407E-02

     total cpu time spent up to now is      291.6 secs

     total energy              =    -550.00963352 Ry
     Harris-Foulkes estimate   =    -550.00860072 Ry
     estimated scf accuracy    <       0.00452123 Ry

     total magnetization       =     6.00 Bohr mag/cell
     absolute magnetization    =    10.26 Bohr mag/cell

     iteration #  4     ecut=    50.00 Ry     beta= 0.30
     Davidson diagonalization with overlap
     ethr =  6.46E-06,  avg # of iterations =  2.5

     negative rho (up, down):  6.179E-03 1.261E-02

     total cpu time spent up to now is      295.9 secs

     total energy              =    -550.00982175 Ry
     Harris-Foulkes estimate   =    -550.00989378 Ry
     estimated scf accuracy    <       0.00089129 Ry

     total magnetization       =     6.00 Bohr mag/cell
     absolute magnetization    =    10.30 Bohr mag/cell

     iteration #  5     ecut=    50.00 Ry     beta= 0.30
     Davidson diagonalization with overlap
     ethr =  1.27E-06,  avg # of iterations =  3.4

     negative rho (up, down):  5.765E-03 1.191E-02

     total cpu time spent up to now is      300.3 secs

     total energy              =    -550.00987309 Ry
     Harris-Foulkes estimate   =    -550.00989101 Ry
     estimated scf accuracy    <       0.00015010 Ry

     total magnetization       =     6.00 Bohr mag/cell
     absolute magnetization    =    10.30 Bohr mag/cell

     iteration #  6     ecut=    50.00 Ry     beta= 0.30
     Davidson diagonalization with overlap
     ethr =  2.14E-07,  avg # of iterations =  3.1

     negative rho (up, down):  5.468E-03 1.133E-02

     total cpu time spent up to now is      304.8 secs

     total energy              =    -550.00989558 Ry
     Harris-Foulkes estimate   =    -550.00989493 Ry
     estimated scf accuracy    <       0.00001155 Ry

     total magnetization       =     6.00 Bohr mag/cell
     absolute magnetization    =    10.30 Bohr mag/cell

     iteration #  7     ecut=    50.00 Ry     beta= 0.30
     Davidson diagonalization with overlap
     ethr =  1.65E-08,  avg # of iterations =  3.9

     negative rho (up, down):  5.359E-03 1.087E-02

     total cpu time spent up to now is      309.8 secs

     total energy              =    -550.00989981 Ry
     Harris-Foulkes estimate   =    -550.00989964 Ry
     estimated scf accuracy    <       0.00000266 Ry

     total magnetization       =     6.00 Bohr mag/cell
     absolute magnetization    =    10.31 Bohr mag/cell

     iteration #  8     ecut=    50.00 Ry     beta= 0.30
     Davidson diagonalization with overlap
     ethr =  3.80E-09,  avg # of iterations =  1.3

     negative rho (up, down):  5.122E-03 1.080E-02

     total cpu time spent up to now is      313.6 secs

     total energy              =    -550.00989970 Ry
     Harris-Foulkes estimate   =    -550.00990016 Ry
     estimated scf accuracy    <       0.00000289 Ry

     total magnetization       =     6.00 Bohr mag/cell
     absolute magnetization    =    10.32 Bohr mag/cell

     iteration #  9     ecut=    50.00 Ry     beta= 0.30
     Davidson diagonalization with overlap
     ethr =  3.80E-09,  avg # of iterations =  2.1

     negative rho (up, down):  5.124E-03 1.059E-02

     total cpu time spent up to now is      317.8 secs

     total energy              =    -550.00990040 Ry
     Harris-Foulkes estimate   =    -550.00990032 Ry
     estimated scf accuracy    <       0.00000097 Ry

     total magnetization       =     6.00 Bohr mag/cell
     absolute magnetization    =    10.32 Bohr mag/cell

     iteration # 10     ecut=    50.00 Ry     beta= 0.30
     Davidson diagonalization with overlap
     ethr =  1.39E-09,  avg # of iterations =  1.0

     negative rho (up, down):  5.076E-03 1.045E-02

     total cpu time spent up to now is      321.4 secs

     total energy              =    -550.00990051 Ry
     Harris-Foulkes estimate   =    -550.00990045 Ry
     estimated scf accuracy    <       0.00000038 Ry

     total magnetization       =     6.00 Bohr mag/cell
     absolute magnetization    =    10.32 Bohr mag/cell

     iteration # 11     ecut=    50.00 Ry     beta= 0.30
     Davidson diagonalization with overlap
     ethr =  5.47E-10,  avg # of iterations =  2.6

     negative rho (up, down):  5.070E-03 1.042E-02

     total cpu time spent up to now is      325.9 secs

     total energy              =    -550.00990082 Ry
     Harris-Foulkes estimate   =    -550.00990080 Ry
     estimated scf accuracy    <       0.00000012 Ry

     total magnetization       =     6.00 Bohr mag/cell
     absolute magnetization    =    10.33 Bohr mag/cell

     iteration # 12     ecut=    50.00 Ry     beta= 0.30
     Davidson diagonalization with overlap
     ethr =  1.77E-10,  avg # of iterations =  2.1

     negative rho (up, down):  5.100E-03 1.034E-02

     total cpu time spent up to now is      330.1 secs

     total energy              =    -550.00990094 Ry
     Harris-Foulkes estimate   =    -550.00990083 Ry
     estimated scf accuracy    <       0.00000012 Ry

     total magnetization       =     6.00 Bohr mag/cell
     absolute magnetization    =    10.33 Bohr mag/cell

     iteration # 13     ecut=    50.00 Ry     beta= 0.30
     Davidson diagonalization with overlap
     ethr =  1.75E-10,  avg # of iterations =  3.0

     negative rho (up, down):  5.123E-03 1.039E-02

     total cpu time spent up to now is      334.8 secs

     total energy              =    -550.00990122 Ry
     Harris-Foulkes estimate   =    -550.00990111 Ry
     estimated scf accuracy    <       0.00000012 Ry

     total magnetization       =     6.00 Bohr mag/cell
     absolute magnetization    =    10.33 Bohr mag/cell

     iteration # 14     ecut=    50.00 Ry     beta= 0.30
     Davidson diagonalization with overlap
     ethr =  1.66E-10,  avg # of iterations =  2.5

     negative rho (up, down):  5.124E-03 1.038E-02

     total cpu time spent up to now is      339.3 secs

     total energy              =    -550.00990134 Ry
     Harris-Foulkes estimate   =    -550.00990132 Ry
     estimated scf accuracy    <       0.00000011 Ry

     total magnetization       =     6.00 Bohr mag/cell
     absolute magnetization    =    10.33 Bohr mag/cell

     iteration # 15     ecut=    50.00 Ry     beta= 0.30
     Davidson diagonalization with overlap
     ethr =  1.61E-10,  avg # of iterations =  1.0

     negative rho (up, down):  5.156E-03 1.039E-02

     total cpu time spent up to now is      343.2 secs

     total energy              =    -550.00990095 Ry
     Harris-Foulkes estimate   =    -550.00990134 Ry
     estimated scf accuracy    <       0.00000011 Ry

     total magnetization       =     6.00 Bohr mag/cell
     absolute magnetization    =    10.33 Bohr mag/cell

     iteration # 16     ecut=    50.00 Ry     beta= 0.30
     Davidson diagonalization with overlap
     ethr =  1.60E-10,  avg # of iterations =  3.0

     negative rho (up, down):  5.132E-03 1.037E-02

     total cpu time spent up to now is      348.5 secs

     total energy              =    -550.00990031 Ry
     Harris-Foulkes estimate   =    -550.00990200 Ry
     estimated scf accuracy    <       0.00000012 Ry

     total magnetization       =     6.00 Bohr mag/cell
     absolute magnetization    =    10.34 Bohr mag/cell

     iteration # 17     ecut=    50.00 Ry     beta= 0.30
     Davidson diagonalization with overlap
     ethr =  1.60E-10,  avg # of iterations =  3.0

     negative rho (up, down):  5.127E-03 1.062E-02

     total cpu time spent up to now is      353.4 secs

     total energy              =    -550.00990055 Ry
     Harris-Foulkes estimate   =    -550.00990136 Ry
     estimated scf accuracy    <       0.00000012 Ry

     total magnetization       =     6.00 Bohr mag/cell
     absolute magnetization    =    10.33 Bohr mag/cell

     iteration # 18     ecut=    50.00 Ry     beta= 0.30
     Davidson diagonalization with overlap
     ethr =  1.60E-10,  avg # of iterations =  3.0

     negative rho (up, down):  5.130E-03 1.062E-02

     total cpu time spent up to now is      358.2 secs

     total energy              =    -550.00990094 Ry
     Harris-Foulkes estimate   =    -550.00990098 Ry
     estimated scf accuracy    <       0.00000010 Ry

     total magnetization       =     6.00 Bohr mag/cell
     absolute magnetization    =    10.33 Bohr mag/cell

     iteration # 19     ecut=    50.00 Ry     beta= 0.30
     Davidson diagonalization with overlap
     ethr =  1.48E-10,  avg # of iterations =  2.0

     negative rho (up, down):  5.236E-03 1.039E-02
 
     Magnetic moment per site:
     atom:    1    charge:   12.4363    magn:    3.5679    constr:    0.0000
     atom:    2    charge:   12.4363    magn:    3.5679    constr:    0.0000
     atom:    3    charge:    4.1609    magn:   -0.1972    constr:    0.0000
     atom:    4    charge:    4.1609    magn:   -0.1972    constr:    0.0000
     atom:    5    charge:    4.1609    magn:   -0.1972    constr:    0.0000
     atom:    6    charge:    4.1609    magn:   -0.1972    constr:    0.0000
     atom:    7    charge:    4.1609    magn:   -0.1972    constr:    0.0000
     atom:    8    charge:    4.1609    magn:   -0.1972    constr:    0.0000

     total cpu time spent up to now is      362.1 secs

     End of self-consistent calculation
 --- enter write_ns ---
 LDA+U parameters:
U( 1)     =  4.26870000
alpha( 1) =  0.00000000
atom    1   Tr[ns(na)] (up, down, total) =   4.43703  0.61173  5.04875
   spin  1
    eigenvalues: 
  0.725  0.725  0.996  0.996  0.996
    eigenvectors:
  0.000  0.000  1.000  0.000  0.000
  0.099  0.580  0.000  0.053  0.268
  0.580  0.099  0.000  0.268  0.053
  0.047  0.274  0.000  0.112  0.567
  0.274  0.047  0.000  0.567  0.112
    occupations:
  0.996 -0.000 -0.000 -0.000 -0.000
 -0.000  0.812 -0.000 -0.126  0.000
 -0.000 -0.000  0.812  0.000  0.126
 -0.000 -0.126  0.000  0.909  0.000
 -0.000  0.000  0.126  0.000  0.909
   spin  2
    eigenvalues: 
  0.047  0.051  0.051  0.231  0.231
    eigenvectors:
  1.000  0.000  0.000  0.000  0.000
  0.000  0.055  0.271  0.104  0.571
  0.000  0.271  0.055  0.571  0.104
  0.000  0.114  0.560  0.050  0.276
  0.000  0.560  0.114  0.276  0.050
    occupations:
  0.047 -0.000 -0.000 -0.000 -0.000
 -0.000  0.173 -0.000  0.084 -0.000
 -0.000 -0.000  0.173 -0.000 -0.084
 -0.000  0.084 -0.000  0.110  0.000
 -0.000 -0.000 -0.084  0.000  0.110
atomic mag. moment =     3.825304
atom    2   Tr[ns(na)] (up, down, total) =   4.43703  0.61173  5.04875
   spin  1
    eigenvalues: 
  0.725  0.725  0.996  0.996  0.996
    eigenvectors:
  0.000  0.000  1.000  0.000  0.000
  0.099  0.580  0.000  0.053  0.268
  0.580  0.099  0.000  0.268  0.053
  0.047  0.274  0.000  0.112  0.567
  0.274  0.047  0.000  0.567  0.112
    occupations:
  0.996 -0.000 -0.000 -0.000 -0.000
 -0.000  0.812 -0.000 -0.126 -0.000
 -0.000 -0.000  0.812 -0.000  0.126
 -0.000 -0.126 -0.000  0.909  0.000
 -0.000 -0.000  0.126  0.000  0.909
   spin  2
    eigenvalues: 
  0.047  0.051  0.051  0.231  0.231
    eigenvectors:
  1.000  0.000  0.000  0.000  0.000
  0.000  0.055  0.271  0.104  0.571
  0.000  0.271  0.055  0.571  0.104
  0.000  0.114  0.560  0.050  0.276
  0.000  0.560  0.114  0.276  0.050
    occupations:
  0.047 -0.000 -0.000 -0.000 -0.000
 -0.000  0.173 -0.000  0.084  0.000
 -0.000 -0.000  0.173  0.000 -0.084
 -0.000  0.084  0.000  0.110  0.000
 -0.000  0.000 -0.084  0.000  0.110
atomic mag. moment =     3.825304
N of occupied +U levels =   10.097509
 --- exit write_ns ---

 ------ SPIN UP ------------


          k = 0.0000 0.0000 0.0000 ( 35867 PWs)   bands (ev):

   -75.1618 -75.1616 -46.6184 -46.6177 -46.6112 -46.6112 -46.6090 -46.6090
   -15.2348 -14.5111 -14.3156 -14.3156 -14.2278 -14.2278  -7.2569  -7.1301
    -6.7685  -6.7685  -6.6775  -6.6775  -5.8893  -5.8893  -5.5752  -5.5570
    -5.4936  -5.4308  -5.4308  -4.7808  -4.7808  -4.2178  -4.2178  -4.0570
    -3.9793  -3.5523  -3.2737  -3.2737  -2.7050  -2.7050  -1.7991  -1.7991
    -1.3288  -1.3288

          k = 0.0000 0.1888 0.0000 ( 35788 PWs)   bands (ev):

   -75.1617 -75.1616 -46.6184 -46.6178 -46.6112 -46.6110 -46.6091 -46.6090
   -15.1832 -14.4890 -14.3791 -14.3292 -14.2393 -14.2380  -7.2458  -7.0856
    -6.8438  -6.8356  -6.5567  -6.5522  -5.9266  -5.8647  -5.7387  -5.5557
    -5.5074  -5.3766  -5.2653  -4.9303  -4.7414  -4.2609  -4.1421  -3.9383
    -3.9126  -3.4802  -3.2960  -3.2362  -2.9708  -2.7547  -1.7997  -1.7775
    -1.5163  -1.3739

          k = 0.0000 0.3775 0.0000 ( 35798 PWs)   bands (ev):

   -75.1617 -75.1616 -46.6183 -46.6179 -46.6112 -46.6108 -46.6094 -46.6089
   -15.0442 -14.5412 -14.4305 -14.3531 -14.2764 -14.2629  -7.3047  -6.9515
    -6.8824  -6.7076  -6.4891  -6.3377  -6.0034  -5.9085  -5.8394  -5.7118
    -5.4390  -5.3569  -5.3220  -4.8250  -4.6404  -4.3165  -4.1671  -3.7944
    -3.7269  -3.3773  -3.3622  -3.3110  -3.2192  -2.8517  -1.7900  -1.7488
    -1.6443  -1.5192

          k =-0.0000-0.5663 0.0000 ( 35860 PWs)   bands (ev):

   -75.1617 -75.1617 -46.6182 -46.6180 -46.6113 -46.6105 -46.6095 -46.6088
   -14.9179 -14.6791 -14.3723 -14.3636 -14.3260 -14.2747  -7.3528  -6.8935
    -6.8417  -6.5836  -6.4400  -6.1226  -6.0943  -6.0195  -5.9342  -5.7821
    -5.4846  -5.3820  -5.3517  -4.6130  -4.6011  -4.2995  -4.2894  -3.7989
    -3.5860  -3.5377  -3.4002  -3.3589  -3.0748  -2.9039  -1.7747  -1.7648
    -1.6250  -1.5726

          k = 0.1635 0.2831 0.0000 ( 35799 PWs)   bands (ev):

   -75.1617 -75.1616 -46.6183 -46.6178 -46.6112 -46.6108 -46.6093 -46.6089
   -15.0869 -14.4836 -14.4488 -14.3600 -14.2589 -14.2577  -7.2047  -7.0745
    -6.9317  -6.6738  -6.5496  -6.3909  -6.0003  -5.8897  -5.7921  -5.5950
    -5.5060  -5.3969  -5.1360  -5.0676  -4.5653  -4.4039  -4.0009  -3.9056
    -3.8103  -3.3742  -3.3061  -3.2578  -3.2187  -2.8375  -1.7899  -1.7423
    -1.7124  -1.3989

          k = 0.1635 0.4719 0.0000 ( 35856 PWs)   bands (ev):

   -75.1617 -75.1617 -46.6182 -46.6180 -46.6113 -46.6105 -46.6096 -46.6088
   -14.9293 -14.6483 -14.3995 -14.3758 -14.3044 -14.2770  -7.2307  -6.9835
    -6.8492  -6.5878  -6.5378  -6.2252  -6.0889  -6.0015  -5.7555  -5.7090
    -5.5590  -5.4542  -5.1840  -4.8726  -4.6262  -4.2727  -4.0606  -3.8318
    -3.7685  -3.5436  -3.3693  -3.2621  -3.0671  -2.9270  -1.7939  -1.7251
    -1.6662  -1.4453

          k = 0.3269 0.5663 0.0000 ( 35811 PWs)   bands (ev):

   -75.1617 -75.1617 -46.6181 -46.6181 -46.6113 -46.6100 -46.6100 -46.6087
   -14.7815 -14.7815 -14.4283 -14.3285 -14.3285 -14.2994  -7.1006  -6.9215
    -6.9215  -6.6060  -6.6060  -6.1575  -6.1575  -6.0233  -5.7046  -5.6692
    -5.5559  -5.5559  -4.9824  -4.9004  -4.9004  -3.9805  -3.9805  -3.9538
    -3.8882  -3.6849  -3.2692  -3.2692  -2.9743  -2.9743  -1.8102  -1.6612
    -1.6612  -1.3654

 ------ SPIN DOWN ----------


          k = 0.0000 0.0000 0.0000 ( 35867 PWs)   bands (ev):

   -71.4876 -71.4873 -42.8086 -42.8075 -42.7839 -42.7839 -42.7809 -42.7809
   -15.3783 -14.7177 -14.4662 -14.4662 -14.2868 -14.2868  -6.7228  -6.1745
    -5.7310  -5.7310  -5.6306  -5.4301  -5.4301  -4.6624  -4.3209  -4.3209
    -4.1681  -4.0569  -4.0569  -3.7206  -3.2723  -3.2723  -2.9256  -2.9256
     1.2374   1.2374   1.3362   1.3363   1.4470   1.4686   1.8026   1.8026
     1.8291   2.0933

          k = 0.0000 0.1888 0.0000 ( 35788 PWs)   bands (ev):

   -71.4876 -71.4873 -42.8085 -42.8076 -42.7839 -42.7837 -42.7810 -42.7808
   -15.3279 -14.6850 -14.5353 -14.4909 -14.2988 -14.2894  -6.7036  -6.1651
    -5.8418  -5.7501  -5.5666  -5.4769  -5.0555  -4.4959  -4.4243  -4.3763
    -4.0784  -4.0701  -4.0267  -3.6791  -3.3674  -3.3169  -3.2400  -2.9985
     1.2147   1.2236   1.3131   1.3506   1.4426   1.5825   1.6933   1.7515
     1.8195   1.8388

          k = 0.0000 0.3775 0.0000 ( 35798 PWs)   bands (ev):

   -71.4875 -71.4874 -42.8084 -42.8077 -42.7841 -42.7834 -42.7814 -42.7807
   -15.1905 -14.7051 -14.6014 -14.5334 -14.3485 -14.2993  -6.6426  -6.1267
    -5.9851  -5.6681  -5.4385  -5.2344  -4.8932  -4.5286  -4.4608  -4.1740
    -4.1598  -4.0252  -3.9570  -3.8682  -3.6288  -3.4125  -3.3234  -3.1080
     1.1655   1.2356   1.2476   1.3526   1.3627   1.5759   1.5790   1.8117
     1.8133   1.9111

          k =-0.0000-0.5663 0.0000 ( 35860 PWs)   bands (ev):

   -71.4875 -71.4874 -42.8082 -42.8079 -42.7841 -42.7831 -42.7817 -42.7807
   -15.0590 -14.8516 -14.5584 -14.5247 -14.4046 -14.3053  -6.6135  -6.0761
    -6.0352  -5.3689  -5.3570  -5.3416  -4.9567  -4.6280  -4.4140  -4.2415
    -4.2003  -4.1681  -3.7685  -3.7597  -3.6638  -3.5500  -3.3718  -3.0479
     1.0757   1.2056   1.2639   1.3358   1.3387   1.4747   1.5882   1.8247
     1.9020   1.9523

          k = 0.1635 0.2831 0.0000 ( 35799 PWs)   bands (ev):

   -71.4875 -71.4874 -42.8084 -42.8077 -42.7841 -42.7834 -42.7813 -42.7807
   -15.2333 -14.6423 -14.6265 -14.5372 -14.3323 -14.2939  -6.6368  -6.1578
    -5.9014  -5.7969  -5.4688  -5.3036  -4.7766  -4.6781  -4.4113  -4.2526
    -4.0891  -3.9881  -3.9564  -3.8820  -3.4865  -3.4147  -3.3330  -3.1083
     1.1894   1.2503   1.3055   1.3120   1.3629   1.5879   1.6007   1.7795
     1.8500   1.8735

          k = 0.1635 0.4719 0.0000 ( 35856 PWs)   bands (ev):

   -71.4875 -71.4874 -42.8082 -42.8079 -42.7842 -42.7830 -42.7818 -42.7806
   -15.0755 -14.8091 -14.5886 -14.5312 -14.3959 -14.3039  -6.5243  -6.1355
    -5.9373  -5.6623  -5.3883  -5.1871  -5.0538  -4.6145  -4.4043  -4.3050
    -4.2047  -4.0207  -3.8427  -3.7205  -3.5924  -3.4998  -3.2968  -3.1333
     1.1476   1.2392   1.2557   1.2953   1.3549   1.4538   1.5086   1.8610
     1.9365   1.9403

          k = 0.3269 0.5663 0.0000 ( 35811 PWs)   bands (ev):

   -71.4874 -71.4874 -42.8080 -42.8080 -42.7843 -42.7824 -42.7824 -42.7806
   -14.9312 -14.9312 -14.6307 -14.4577 -14.4577 -14.3092  -6.2806  -6.2806
    -5.7153  -5.7153  -5.6522  -5.0595  -5.0183  -5.0183  -4.3929  -4.3133
    -4.0296  -3.9080  -3.9080  -3.5882  -3.5882  -3.5331  -3.2092  -3.2092
     1.1928   1.1928   1.2802   1.3152   1.3152   1.3437   1.4921   1.9059
     1.9772   1.9772

     the Fermi energy is    -2.1074 ev

!    total energy              =    -550.00990120 Ry
     Harris-Foulkes estimate   =    -550.00990094 Ry
     estimated scf accuracy    <       0.00000009 Ry

     The total energy is the sum of the following terms:

     one-electron contribution =   -1923.20837466 Ry
     hartree contribution      =     964.94903030 Ry
     xc contribution           =    -139.42859815 Ry
     ewald contribution        =     547.39288488 Ry
     Hubbard energy            =       0.28515644 Ry
     smearing contrib. (-TS)   =      -0.00000000 Ry

     total magnetization       =     6.00 Bohr mag/cell
     absolute magnetization    =    10.33 Bohr mag/cell

     convergence has been achieved in  19 iterations

     negative rho (up, down):  5.236E-03 1.039E-02

     Forces acting on atoms (cartesian axes, Ry/au):

     atom    1 type  1   force =     0.00000000    0.00000000   -0.00001147
     atom    2 type  1   force =     0.00000000    0.00000000   -0.00001147
     atom    3 type  2   force =    -0.00865097    0.00000000   -0.01367049
     atom    4 type  2   force =     0.00432549   -0.00749196   -0.01367049
     atom    5 type  2   force =     0.00432549    0.00749196   -0.01367049
     atom    6 type  2   force =     0.00865395   -0.00000000    0.01367814
     atom    7 type  2   force =    -0.00432698    0.00749454    0.01367814
     atom    8 type  2   force =    -0.00432698   -0.00749454    0.01367814

     Total force =     0.039637     Total SCF correction =     0.000158


     Computing stress (Cartesian axis) and pressure


     negative rho (up, down):  5.236E-03 1.039E-02
          total   stress  (Ry/bohr**3)                   (kbar)     P=    6.72
   0.00004862  -0.00000000   0.00000000          7.15     -0.00      0.00
  -0.00000000   0.00004862   0.00000000         -0.00      7.15      0.00
   0.00000000   0.00000000   0.00003977          0.00      0.00      5.85


     number of scf cycles    =   2
     number of bfgs steps    =   1

     enthalpy old            =    -550.0070027557 Ry
     enthalpy new            =    -550.0099011991 Ry

     CASE: enthalpy_new < enthalpy_old


     WARNING: bfgs curvature condition failed, Theta= 0.936
     new trust radius        =       0.0234459841 bohr
     new conv_thr            =       0.0000000137 Ry

     new unit-cell volume =   6034.54638 a.u.^3 (   894.22750 Ang^3 )
     density =      1.60704 g/cm^3

CELL_PARAMETERS (alat= 12.97674935)
   1.021132269  -0.000000000   0.000000000
  -0.510566134   0.884326486   0.000000000
   0.000000000   0.000000000   3.058103976

ATOMIC_POSITIONS (crystal)
Cr       0.333333330   0.666666670   0.314397609
Cr       0.000000000   0.000000000   0.314397609
I        0.023585789   0.333333330   0.238781750
I        0.666666670   0.690252459   0.238781750
I        0.309747541  -0.023585789   0.238781750
I        0.309750275   0.333333330   0.390011487
I        0.666666670  -0.023583055   0.390011487
I        0.023583055   0.690249725   0.390011487



     Writing output data file cri3.save/
     NEW-OLD atomic charge density approx. for the potential

     negative rho (up, down):  5.225E-03 4.545E-03
     extrapolated charge   70.21111, renormalised to   70.00000
 Atomic wfc used for LDA+U Projector are NOT orthogonalized

     total cpu time spent up to now is      380.2 secs

     Self-consistent Calculation

     iteration #  1     ecut=    50.00 Ry     beta= 0.30
     Davidson diagonalization with overlap
     c_bands:  2 eigenvalues not converged
     ethr =  1.00E-06,  avg # of iterations = 10.6
 --- enter write_ns ---
 LDA+U parameters:
U( 1)     =  4.26870000
alpha( 1) =  0.00000000
atom    1   Tr[ns(na)] (up, down, total) =   4.27786  0.53858  4.81645
   spin  1
    eigenvalues: 
  0.649  0.649  0.993  0.994  0.994
    eigenvectors:
  0.000  0.000  1.000  0.000  0.000
  0.099  0.582  0.000  0.053  0.266
  0.582  0.099  0.000  0.266  0.053
  0.047  0.273  0.000  0.113  0.568
  0.273  0.047  0.000  0.568  0.113
    occupations:
  0.993 -0.000 -0.000 -0.000 -0.000
 -0.000  0.759 -0.000 -0.161 -0.000
 -0.000 -0.000  0.759 -0.000  0.161
 -0.000 -0.161 -0.000  0.884  0.000
 -0.000 -0.000  0.161  0.000  0.884
   spin  2
    eigenvalues: 
  0.042  0.045  0.045  0.203  0.203
    eigenvectors:
  1.000  0.000  0.000  0.000  0.000
  0.000  0.055  0.268  0.104  0.574
  0.000  0.268  0.055  0.574  0.104
  0.000  0.115  0.563  0.049  0.273
  0.000  0.563  0.115  0.273  0.049
    occupations:
  0.042 -0.000 -0.000 -0.000 -0.000
 -0.000  0.152 -0.000  0.074  0.000
 -0.000 -0.000  0.152  0.000 -0.074
 -0.000  0.074  0.000  0.096  0.000
 -0.000  0.000 -0.074  0.000  0.096
atomic mag. moment =     3.739280
atom    2   Tr[ns(na)] (up, down, total) =   4.27786  0.53858  4.81645
   spin  1
    eigenvalues: 
  0.649  0.649  0.993  0.994  0.994
    eigenvectors:
  0.000  0.000  1.000  0.000  0.000
  0.099  0.582  0.000  0.053  0.266
  0.582  0.099  0.000  0.266  0.053
  0.047  0.273  0.000  0.113  0.568
  0.273  0.047  0.000  0.568  0.113
    occupations:
  0.993 -0.000 -0.000 -0.000 -0.000
 -0.000  0.759 -0.000 -0.161  0.000
 -0.000 -0.000  0.759  0.000  0.161
 -0.000 -0.161  0.000  0.884  0.000
 -0.000  0.000  0.161  0.000  0.884
   spin  2
    eigenvalues: 
  0.042  0.045  0.045  0.203  0.203
    eigenvectors:
  1.000  0.000  0.000  0.000  0.000
  0.000  0.055  0.268  0.104  0.574
  0.000  0.268  0.055  0.574  0.104
  0.000  0.115  0.563  0.049  0.273
  0.000  0.563  0.115  0.273  0.049
    occupations:
  0.042 -0.000 -0.000 -0.000 -0.000
 -0.000  0.152 -0.000  0.074 -0.000
 -0.000 -0.000  0.152 -0.000 -0.074
 -0.000  0.074 -0.000  0.096  0.000
 -0.000 -0.000 -0.074  0.000  0.096
atomic mag. moment =     3.739280
N of occupied +U levels =    9.632893
 --- exit write_ns ---

     negative rho (up, down):  7.756E-03 1.713E-02

     total cpu time spent up to now is      389.2 secs

     total energy              =    -549.98527450 Ry
     Harris-Foulkes estimate   =    -544.51558552 Ry
     estimated scf accuracy    <       0.11274503 Ry

     total magnetization       =     6.00 Bohr mag/cell
     absolute magnetization    =     9.90 Bohr mag/cell

     iteration #  2     ecut=    50.00 Ry     beta= 0.30
     Davidson diagonalization with overlap
     ethr =  1.61E-04,  avg # of iterations =  3.9

     negative rho (up, down):  7.470E-03 1.559E-02

     total cpu time spent up to now is      394.4 secs

     total energy              =    -550.01065184 Ry
     Harris-Foulkes estimate   =    -550.00935983 Ry
     estimated scf accuracy    <       0.00758217 Ry

     total magnetization       =     6.00 Bohr mag/cell
     absolute magnetization    =    10.30 Bohr mag/cell

     iteration #  3     ecut=    50.00 Ry     beta= 0.30
     Davidson diagonalization with overlap
     ethr =  1.08E-05,  avg # of iterations =  2.1

     negative rho (up, down):  6.705E-03 1.469E-02

     total cpu time spent up to now is      398.4 secs

     total energy              =    -550.01217450 Ry
     Harris-Foulkes estimate   =    -550.01088822 Ry
     estimated scf accuracy    <       0.00542096 Ry

     total magnetization       =     6.00 Bohr mag/cell
     absolute magnetization    =    10.33 Bohr mag/cell

     iteration #  4     ecut=    50.00 Ry     beta= 0.30
     Davidson diagonalization with overlap
     ethr =  7.74E-06,  avg # of iterations =  3.2

     negative rho (up, down):  6.275E-03 1.302E-02

     total cpu time spent up to now is      402.8 secs

     total energy              =    -550.01240396 Ry
     Harris-Foulkes estimate   =    -550.01249647 Ry
     estimated scf accuracy    <       0.00113649 Ry

     total magnetization       =     6.00 Bohr mag/cell
     absolute magnetization    =    10.38 Bohr mag/cell

     iteration #  5     ecut=    50.00 Ry     beta= 0.30
     Davidson diagonalization with overlap
     ethr =  1.62E-06,  avg # of iterations =  2.8

     negative rho (up, down):  5.775E-03 1.220E-02

     total cpu time spent up to now is      407.2 secs

     total energy              =    -550.01246126 Ry
     Harris-Foulkes estimate   =    -550.01248776 Ry
     estimated scf accuracy    <       0.00019863 Ry

     total magnetization       =     6.00 Bohr mag/cell
     absolute magnetization    =    10.37 Bohr mag/cell

     iteration #  6     ecut=    50.00 Ry     beta= 0.30
     Davidson diagonalization with overlap
     ethr =  2.84E-07,  avg # of iterations =  2.5

[...]
     ethr =  1.59E-10,  avg # of iterations =  7.4

     negative rho (up, down):  5.340E-03 9.202E-03

     total cpu time spent up to now is     2315.7 secs

     total energy              =    -550.01989518 Ry
     Harris-Foulkes estimate   =    -550.02028132 Ry
     estimated scf accuracy    <       0.00000002 Ry

     total magnetization       =     6.00 Bohr mag/cell
     absolute magnetization    =    10.68 Bohr mag/cell

     iteration # 30     ecut=    50.00 Ry     beta= 0.30
     Davidson diagonalization with overlap
     ethr =  2.53E-11,  avg # of iterations =  8.6

     negative rho (up, down):  5.349E-03 1.265E-02

     total cpu time spent up to now is     2324.3 secs

     total energy              =    -550.02021462 Ry
     Harris-Foulkes estimate   =    -550.02029390 Ry
     estimated scf accuracy    <       0.00000032 Ry

     total magnetization       =     6.00 Bohr mag/cell
     absolute magnetization    =    10.56 Bohr mag/cell

     iteration # 31     ecut=    50.00 Ry     beta= 0.30
     Davidson diagonalization with overlap
     ethr =  2.53E-11,  avg # of iterations =  8.0

     negative rho (up, down):  5.361E-03 2.136E-02

     total cpu time spent up to now is     2332.3 secs

     total energy              =    -550.01996754 Ry
     Harris-Foulkes estimate   =    -550.02028655 Ry
     estimated scf accuracy    <       0.00000012 Ry

     total magnetization       =     6.00 Bohr mag/cell
     absolute magnetization    =    10.61 Bohr mag/cell

     iteration # 32     ecut=    50.00 Ry     beta= 0.30
     Davidson diagonalization with overlap
     ethr =  2.53E-11,  avg # of iterations =  8.4

     negative rho (up, down):  5.354E-03 1.113E-02

     total cpu time spent up to now is     2341.0 secs

     total energy              =    -550.02019317 Ry
     Harris-Foulkes estimate   =    -550.02028303 Ry
     estimated scf accuracy    <       0.00000004 Ry

     total magnetization       =     6.00 Bohr mag/cell
     absolute magnetization    =    10.72 Bohr mag/cell

     iteration # 33     ecut=    50.00 Ry     beta= 0.30
     Davidson diagonalization with overlap
     ethr =  2.53E-11,  avg # of iterations =  7.6

     negative rho (up, down):  5.351E-03 1.308E-02

     total cpu time spent up to now is     2348.9 secs

     total energy              =    -550.02024402 Ry
     Harris-Foulkes estimate   =    -550.02028307 Ry
     estimated scf accuracy    <       0.00000001 Ry

     total magnetization       =     6.00 Bohr mag/cell
     absolute magnetization    =    10.66 Bohr mag/cell

     iteration # 34     ecut=    50.00 Ry     beta= 0.30
     Davidson diagonalization with overlap
     ethr =  2.07E-11,  avg # of iterations =  7.6

     negative rho (up, down):  5.347E-03 9.318E-03

     total cpu time spent up to now is     2356.6 secs

     total energy              =    -550.02025795 Ry
     Harris-Foulkes estimate   =    -550.02028278 Ry
     estimated scf accuracy    <          7.1E-09 Ry

     total magnetization       =     6.00 Bohr mag/cell
     absolute magnetization    =    10.70 Bohr mag/cell

     iteration # 35     ecut=    50.00 Ry     beta= 0.30
     Davidson diagonalization with overlap
     ethr =  1.01E-11,  avg # of iterations =  7.4

     negative rho (up, down):  5.347E-03 9.828E-03

     total cpu time spent up to now is     2364.2 secs

     total energy              =    -550.02027439 Ry
     Harris-Foulkes estimate   =    -550.02028291 Ry
     estimated scf accuracy    <          6.6E-09 Ry

     total magnetization       =     6.00 Bohr mag/cell
     absolute magnetization    =    10.67 Bohr mag/cell

     iteration # 36     ecut=    50.00 Ry     beta= 0.30
     Davidson diagonalization with overlap
     ethr =  9.40E-12,  avg # of iterations =  6.7

     negative rho (up, down):  5.345E-03 9.171E-03

     total cpu time spent up to now is     2371.4 secs

     total energy              =    -550.02028140 Ry
     Harris-Foulkes estimate   =    -550.02028273 Ry
     estimated scf accuracy    <          1.0E-09 Ry

     total magnetization       =     6.00 Bohr mag/cell
     absolute magnetization    =    10.69 Bohr mag/cell

     iteration # 37     ecut=    50.00 Ry     beta= 0.30
     Davidson diagonalization with overlap
     ethr =  1.48E-12,  avg # of iterations =  6.9

     negative rho (up, down):  5.346E-03 9.113E-03

     total cpu time spent up to now is     2378.6 secs

     total energy              =    -550.02028269 Ry
     Harris-Foulkes estimate   =    -550.02028276 Ry
     estimated scf accuracy    <          1.4E-09 Ry

     total magnetization       =     6.00 Bohr mag/cell
     absolute magnetization    =    10.68 Bohr mag/cell

     iteration # 38     ecut=    50.00 Ry     beta= 0.30
     Davidson diagonalization with overlap
     ethr =  1.48E-12,  avg # of iterations =  4.0

     negative rho (up, down):  5.346E-03 9.104E-03

     total cpu time spent up to now is     2384.4 secs

     total energy              =    -550.02028254 Ry
     Harris-Foulkes estimate   =    -550.02028276 Ry
     estimated scf accuracy    <          1.1E-09 Ry

     total magnetization       =     6.00 Bohr mag/cell
     absolute magnetization    =    10.68 Bohr mag/cell

     iteration # 39     ecut=    50.00 Ry     beta= 0.30
     Davidson diagonalization with overlap
     ethr =  1.48E-12,  avg # of iterations =  5.1

     negative rho (up, down):  5.346E-03 9.045E-03
 
     Magnetic moment per site:
     atom:    1    charge:   12.3530    magn:    3.6609    constr:    0.0000
     atom:    2    charge:   12.3530    magn:    3.6609    constr:    0.0000
     atom:    3    charge:    4.1305    magn:   -0.2197    constr:    0.0000
     atom:    4    charge:    4.1305    magn:   -0.2197    constr:    0.0000
     atom:    5    charge:    4.1305    magn:   -0.2197    constr:    0.0000
     atom:    6    charge:    4.1306    magn:   -0.2197    constr:    0.0000
     atom:    7    charge:    4.1306    magn:   -0.2197    constr:    0.0000
     atom:    8    charge:    4.1306    magn:   -0.2197    constr:    0.0000

     total cpu time spent up to now is     2390.4 secs

     End of self-consistent calculation
 --- enter write_ns ---
 LDA+U parameters:
U( 1)     =  4.26870000
alpha( 1) =  0.00000000
atom    1   Tr[ns(na)] (up, down, total) =   4.46331  0.50337  4.96668
   spin  1
    eigenvalues: 
  0.736  0.736  0.997  0.997  0.997
    eigenvectors:
  0.000  0.000  1.000  0.000  0.000
  0.099  0.577  0.000  0.053  0.270
  0.577  0.099  0.000  0.270  0.053
  0.047  0.276  0.000  0.112  0.565
  0.276  0.047  0.000  0.565  0.112
    occupations:
  0.997 -0.000 -0.000 -0.000 -0.000
 -0.000  0.821 -0.000 -0.122  0.000
 -0.000 -0.000  0.821  0.000  0.122
 -0.000 -0.122  0.000  0.913  0.000
 -0.000  0.000  0.122  0.000  0.913
   spin  2
    eigenvalues: 
  0.039  0.042  0.042  0.191  0.191
    eigenvectors:
  1.000  0.000  0.000  0.000  0.000
  0.000  0.056  0.274  0.103  0.567
  0.000  0.274  0.056  0.567  0.103
  0.000  0.113  0.557  0.051  0.279
  0.000  0.557  0.113  0.279  0.051
    occupations:
  0.039 -0.000 -0.000 -0.000 -0.000
 -0.000  0.142 -0.000  0.070 -0.000
 -0.000 -0.000  0.142 -0.000 -0.070
 -0.000  0.070 -0.000  0.091  0.000
 -0.000 -0.000 -0.070  0.000  0.091
atomic mag. moment =     3.959937
atom    2   Tr[ns(na)] (up, down, total) =   4.46331  0.50337  4.96668
   spin  1
    eigenvalues: 
  0.736  0.736  0.997  0.997  0.997
    eigenvectors:
  0.000  0.000  1.000  0.000  0.000
  0.099  0.577  0.000  0.053  0.270
  0.577  0.099  0.000  0.270  0.053
  0.047  0.276  0.000  0.112  0.565
  0.276  0.047  0.000  0.565  0.112
    occupations:
  0.997 -0.000 -0.000 -0.000 -0.000
 -0.000  0.821 -0.000 -0.122 -0.000
 -0.000 -0.000  0.821 -0.000  0.122
 -0.000 -0.122 -0.000  0.913  0.000
 -0.000 -0.000  0.122  0.000  0.913
   spin  2
    eigenvalues: 
  0.039  0.042  0.042  0.191  0.191
    eigenvectors:
  1.000  0.000  0.000  0.000  0.000
  0.000  0.056  0.274  0.103  0.567
  0.000  0.274  0.056  0.567  0.103
  0.000  0.113  0.557  0.051  0.279
  0.000  0.557  0.113  0.279  0.051
    occupations:
  0.039 -0.000 -0.000 -0.000 -0.000
 -0.000  0.142 -0.000  0.070  0.000
 -0.000 -0.000  0.142  0.000 -0.070
 -0.000  0.070  0.000  0.091  0.000
 -0.000  0.000 -0.070  0.000  0.091
atomic mag. moment =     3.959937
N of occupied +U levels =    9.933359
 --- exit write_ns ---

 ------ SPIN UP ------------


          k = 0.0000 0.0000 0.0000 ( 37685 PWs)   bands (ev):

   -75.3894 -75.3893 -46.8436 -46.8431 -46.8361 -46.8361 -46.8347 -46.8347
   -15.1566 -14.5537 -14.3957 -14.3957 -14.3282 -14.3282  -7.1521  -7.0856
    -6.7496  -6.7496  -6.6824  -6.6824  -5.9572  -5.9572  -5.6779  -5.6583
    -5.5699  -5.5699  -5.5376  -4.9341  -4.9341  -4.3865  -4.3865  -4.1804
    -4.1276  -3.6894  -3.4490  -3.4490  -2.9826  -2.9826  -2.1905  -2.1905
    -1.7794  -1.7794

          k = 0.0000 0.1843 0.0000 ( 37705 PWs)   bands (ev):

   -75.3894 -75.3893 -46.8435 -46.8432 -46.8361 -46.8360 -46.8348 -46.8347
   -15.1127 -14.5358 -14.4468 -14.4071 -14.3374 -14.3359  -7.1539  -7.0472
    -6.8158  -6.8147  -6.5758  -6.5649  -5.9854  -5.9378  -5.7533  -5.7185
    -5.6399  -5.5180  -5.3766  -5.0494  -4.8862  -4.4270  -4.2979  -4.0850
    -4.0574  -3.6309  -3.4699  -3.4190  -3.2202  -3.0273  -2.1912  -2.1711
    -1.9426  -1.8166

          k = 0.0000 0.3685 0.0000 ( 37688 PWs)   bands (ev):

   -75.3894 -75.3893 -46.8435 -46.8432 -46.8362 -46.8358 -46.8350 -46.8346
   -14.9948 -14.5783 -14.4883 -14.4269 -14.3658 -14.3566  -7.2210  -6.9315
    -6.8636  -6.6980  -6.5219  -6.3726  -6.0395  -5.9219  -5.9199  -5.8420
    -5.5904  -5.4780  -5.4666  -4.9430  -4.7741  -4.4704  -4.2971  -3.9502
    -3.8958  -3.5701  -3.5612  -3.4950  -3.4054  -3.1058  -2.1844  -2.1480
    -2.0528  -1.9390

          k =-0.0000-0.5528 0.0000 ( 37722 PWs)   bands (ev):

   -75.3894 -75.3894 -46.8434 -46.8433 -46.8362 -46.8357 -46.8351 -46.8346
   -14.8881 -14.6919 -14.4431 -14.4335 -14.4058 -14.3661  -7.2658  -6.8774
    -6.8397  -6.6016  -6.4812  -6.2220  -6.0531  -6.0479  -6.0033  -5.8892
    -5.5775  -5.5468  -5.5020  -4.7417  -4.7373  -4.4449  -4.4118  -3.9794
    -3.7711  -3.7120  -3.5917  -3.5215  -3.2978  -3.1434  -2.1742  -2.1634
    -2.0280  -1.9881

          k = 0.1596 0.2764 0.0000 ( 37695 PWs)   bands (ev):

   -75.3894 -75.3893 -46.8435 -46.8432 -46.8362 -46.8359 -46.8349 -46.8346
   -15.0310 -14.5310 -14.5032 -14.4329 -14.3520 -14.3520  -7.1308  -7.0333
    -6.9033  -6.6731  -6.5691  -6.4234  -6.0399  -5.9275  -5.8694  -5.7425
    -5.6367  -5.5309  -5.2700  -5.1745  -4.7031  -4.5471  -4.1612  -4.0575
    -3.9555  -3.5740  -3.4885  -3.4410  -3.4153  -3.1014  -2.1837  -2.1384
    -2.1168  -1.8364

          k = 0.1596 0.4606 0.0000 ( 37697 PWs)   bands (ev):

   -75.3894 -75.3894 -46.8434 -46.8433 -46.8362 -46.8357 -46.8351 -46.8346
   -14.8981 -14.6657 -14.4655 -14.4443 -14.3880 -14.3673  -7.1620  -6.9535
    -6.8458  -6.6044  -6.5637  -6.2585  -6.1039  -6.0498  -5.8544  -5.8144
    -5.6608  -5.6049  -5.3146  -4.9942  -4.7508  -4.4178  -4.2107  -4.0103
    -3.9325  -3.6984  -3.5660  -3.4579  -3.2840  -3.1701  -2.1952  -2.1238
    -2.0703  -1.8742

          k = 0.3191 0.5528 0.0000 ( 37677 PWs)   bands (ev):

   -75.3894 -75.3894 -46.8434 -46.8434 -46.8362 -46.8354 -46.8354 -46.8346
   -14.7749 -14.7749 -14.4900 -14.4061 -14.4061 -14.3861  -7.0495  -6.9106
    -6.9106  -6.6184  -6.6184  -6.1554  -6.1554  -6.1218  -5.8159  -5.7616
    -5.6891  -5.6891  -5.0689  -5.0307  -5.0307  -4.1427  -4.1427  -4.1167
    -4.0712  -3.8111  -3.4717  -3.4717  -3.2083  -3.2083  -2.2121  -2.0668
    -2.0667  -1.8056

 ------ SPIN DOWN ----------


          k = 0.0000 0.0000 0.0000 ( 37685 PWs)   bands (ev):

   -71.6129 -71.6127 -42.9222 -42.9215 -42.9019 -42.9019 -42.8999 -42.8999
   -15.3367 -14.7912 -14.5838 -14.5838 -14.4315 -14.4315  -6.6401  -6.1767
    -5.7350  -5.7350  -5.6247  -5.4043  -5.4043  -4.7110  -4.3925  -4.3925
    -4.3255  -4.1895  -4.1895  -3.8778  -3.4712  -3.4712  -3.2213  -3.2213
     1.2033   1.2033   1.2892   1.2892   1.3886   1.4222   1.6889   1.6889
     1.7547   1.7547

          k = 0.0000 0.1843 0.0000 ( 37705 PWs)   bands (ev):

   -71.6129 -71.6127 -42.9222 -42.9216 -42.9019 -42.9018 -42.9000 -42.8999
   -15.2942 -14.7636 -14.6401 -14.6051 -14.4406 -14.4324  -6.6322  -6.1711
    -5.8156  -5.7417  -5.5835  -5.4451  -5.0761  -4.5639  -4.5043  -4.4467
    -4.2319  -4.1941  -4.1725  -3.8317  -3.5864  -3.5228  -3.4583  -3.2758
     1.1747   1.1759   1.2763   1.3035   1.3976   1.5067   1.6044   1.6475
     1.7460   1.7685

          k = 0.0000 0.3685 0.0000 ( 37688 PWs)   bands (ev):

   -71.6128 -71.6128 -42.9221 -42.9217 -42.9020 -42.9016 -42.9003 -42.8998
   -15.1784 -14.7790 -14.6941 -14.6411 -14.4800 -14.4387  -6.5890  -6.1464
    -5.9521  -5.6586  -5.4332  -5.2613  -4.9407  -4.5947  -4.5283  -4.3027
    -4.2729  -4.1832  -4.0833  -4.0489  -3.7878  -3.5914  -3.5298  -3.3629
     1.1370   1.1954   1.2015   1.3043   1.3150   1.4879   1.5116   1.7189
     1.7334   1.8301

          k =-0.0000-0.5528 0.0000 ( 37722 PWs)   bands (ev):

   -71.6128 -71.6128 -42.9220 -42.9218 -42.9021 -42.9014 -42.9005 -42.8998
   -15.0675 -14.9004 -14.6644 -14.6293 -14.5247 -14.4429  -6.5640  -6.1124
    -6.0002  -5.3841  -5.3757  -5.3477  -5.0043  -4.6876  -4.4976  -4.3634
    -4.3048  -4.2863  -3.9739  -3.8918  -3.8322  -3.7138  -3.5702  -3.3058
     1.0693   1.1562   1.2268   1.2785   1.3052   1.3987   1.5074   1.7354
     1.7999   1.8640

          k = 0.1596 0.2764 0.0000 ( 37695 PWs)   bands (ev):

   -71.6128 -71.6128 -42.9221 -42.9216 -42.9020 -42.9016 -42.9002 -42.8998
   -15.2145 -14.7272 -14.7148 -14.6440 -14.4677 -14.4343  -6.5843  -6.1686
    -5.8656  -5.7903  -5.4411  -5.3379  -4.8251  -4.7437  -4.4765  -4.3590
    -4.2119  -4.1288  -4.1146  -4.0519  -3.6656  -3.6141  -3.5387  -3.3513
     1.1444   1.1983   1.2741   1.2768   1.3116   1.5092   1.5123   1.6961
     1.7662   1.7977

          k = 0.1596 0.4606 0.0000 ( 37697 PWs)   bands (ev):

   -71.6128 -71.6128 -42.9220 -42.9218 -42.9021 -42.9013 -42.9005 -42.8998
   -15.0821 -14.8638 -14.6891 -14.6338 -14.5196 -14.4410  -6.4919  -6.1614
    -5.9095  -5.6561  -5.3975  -5.1977  -5.0808  -4.6716  -4.5133  -4.4196
    -4.2999  -4.1595  -4.0194  -3.8914  -3.7693  -3.6727  -3.5004  -3.3691
     1.1296   1.1888   1.2229   1.2475   1.2922   1.3818   1.4430   1.7793
     1.8263   1.8507

          k = 0.3191 0.5528 0.0000 ( 37677 PWs)   bands (ev):

   -71.6128 -71.6128 -42.9219 -42.9219 -42.9022 -42.9009 -42.9009 -42.8998
   -14.9627 -14.9627 -14.7244 -14.5724 -14.5724 -14.4442  -6.2902  -6.2902
    -5.7009  -5.7009  -5.6543  -5.0547  -5.0399  -5.0399  -4.4952  -4.4425
    -4.1631  -4.0669  -4.0669  -3.7779  -3.7779  -3.6937  -3.4212  -3.4212
     1.1567   1.1567   1.2398   1.2642   1.2642   1.2804   1.4222   1.8193
     1.8720   1.8720

     the Fermi energy is    -2.3290 ev

!    total energy              =    -550.02028276 Ry
     Harris-Foulkes estimate   =    -550.02028275 Ry
     estimated scf accuracy    <          9.0E-10 Ry

     The total energy is the sum of the following terms:

     one-electron contribution =   -1836.55124499 Ry
     hartree contribution      =     921.22054592 Ry
     xc contribution           =    -139.24028602 Ry
     ewald contribution        =     504.29241152 Ry
     Hubbard energy            =       0.25829082 Ry
     smearing contrib. (-TS)   =      -0.00000000 Ry

     total magnetization       =     6.00 Bohr mag/cell
     absolute magnetization    =    10.69 Bohr mag/cell

     convergence has been achieved in  39 iterations

     negative rho (up, down):  5.346E-03 9.045E-03

     Forces acting on atoms (cartesian axes, Ry/au):

     atom    1 type  1   force =    -0.00000000   -0.00000000   -0.00001475
     atom    2 type  1   force =     0.00000000    0.00000000   -0.00001475
     atom    3 type  2   force =     0.00069823   -0.00000000    0.00013922
     atom    4 type  2   force =    -0.00034912    0.00060469    0.00013922
     atom    5 type  2   force =    -0.00034912   -0.00060469    0.00013922
     atom    6 type  2   force =    -0.00069472    0.00000000   -0.00012939
     atom    7 type  2   force =     0.00034736   -0.00060164   -0.00012939
     atom    8 type  2   force =     0.00034736    0.00060164   -0.00012939

     Total force =     0.001738     Total SCF correction =     0.000020


     Computing stress (Cartesian axis) and pressure


     negative rho (up, down):  5.346E-03 9.045E-03
          total   stress  (Ry/bohr**3)                   (kbar)     P=   -0.03
   0.00000040  -0.00000000   0.00000000          0.06     -0.00      0.00
  -0.00000000   0.00000040   0.00000000         -0.00      0.06      0.00
   0.00000000   0.00000000  -0.00000142          0.00      0.00     -0.21


     Writing output data file cri3.save/
 
     init_run     :     10.70s CPU     12.38s WALL (       2 calls)
     electrons    :   2076.46s CPU   2124.96s WALL (      15 calls)
     update_pot   :     61.12s CPU     61.23s WALL (      13 calls)
     forces       :     48.52s CPU     49.13s WALL (      15 calls)
     stress       :    139.69s CPU    140.41s WALL (      15 calls)

     Called by init_run:
     wfcinit      :      2.60s CPU      2.99s WALL (       2 calls)
     potinit      :      2.09s CPU      2.20s WALL (       2 calls)
     hinit0       :      4.36s CPU      4.53s WALL (       2 calls)

     Called by electrons:
     c_bands      :   1404.15s CPU   1416.61s WALL (     442 calls)
     sum_band     :    351.17s CPU    373.77s WALL (     442 calls)
     v_of_rho     :     70.16s CPU     70.65s WALL (     457 calls)
     newd         :     70.72s CPU     80.36s WALL (     457 calls)
     mix_rho      :    178.49s CPU    180.26s WALL (     442 calls)

     Called by c_bands:
     init_us_2    :     12.58s CPU     12.77s WALL (   15134 calls)
     cegterg      :   1354.02s CPU   1366.01s WALL (    6188 calls)

     Called by sum_band:
     sum_band:bec :      0.51s CPU      0.51s WALL (    6188 calls)
     addusdens    :    131.63s CPU    152.02s WALL (     442 calls)

     Called by *egterg:
     h_psi        :   1003.40s CPU   1012.37s WALL (   25167 calls)
     s_psi        :     21.10s CPU     21.25s WALL (   27477 calls)
     g_psi        :      2.61s CPU      2.63s WALL (   18951 calls)
     cdiaghg      :    197.78s CPU    199.96s WALL (   24957 calls)

     Called by h_psi:
     h_psi:pot    :    990.53s CPU    999.41s WALL (   25167 calls)
     h_psi:calbec :     29.91s CPU     30.16s WALL (   25167 calls)
     vloc_psi     :    942.31s CPU    950.82s WALL (   25167 calls)
     add_vuspsi   :     18.09s CPU     18.24s WALL (   25167 calls)
     vhpsi        :     10.65s CPU     10.74s WALL (   25167 calls)

     General routines
     calbec       :     66.93s CPU     67.61s WALL (  130540 calls)
     fft          :     57.01s CPU     57.56s WALL (   12008 calls)
     ffts         :    129.79s CPU    130.78s WALL (  112043 calls)
     fftw         :   1096.08s CPU   1106.00s WALL ( 1594964 calls)
     interpolate  :      4.17s CPU      4.20s WALL (     914 calls)
     davcio       :      0.00s CPU      0.00s WALL (      28 calls)
 
     Parallel routines
     fft_scatt_xy :     36.65s CPU     37.05s WALL ( 1719015 calls)
     fft_scatt_yz :   1077.95s CPU   1088.48s WALL ( 1719015 calls)

     Hubbard U routines
     new_ns       :      2.63s CPU      2.66s WALL (     442 calls)
     vhpsi        :     10.65s CPU     10.74s WALL (   25167 calls)
     force_hub    :      4.21s CPU      4.28s WALL (      15 calls)
     stres_hub    :     32.05s CPU     32.26s WALL (      15 calls)
 
     PWSCF        :  39m 3.06s CPU  40m 4.99s WALL

 
   This run was terminated on:  22:23:34  24May2021            

=------------------------------------------------------------------------------=
   JOB DONE.
=------------------------------------------------------------------------------=
