 vasp.6.4.1 05Apr23 (build Jul 28 2023 11:32:33) complex                        
  
 executed on             LinuxIFC date 2023.11.19  16:43:16
 running    8 mpi-ranks, on    1 nodes
 distrk:  each k-point on    8 cores,    1 groups
 distr:  one band on NCORE=   1 cores,    8 groups


--------------------------------------------------------------------------------------------------------


 INCAR:
   PREC = Accurate
   ISMEAR = 0
   SIGMA = 0.2
   ENCUT = 350.00
   NELM = 300                :max electron step
   ISPIN = 2                 :1-without or 2-with spin polarized
   IVDW = 11
   EDIFF = 1E-06
   LSORBIT = .TRUE.
   LORBIT = 11
   SAXIS = 0 0 1
   ICHARG = 11
   LDAU = .TRUE.                  whether perform LDA+U calculation
   LDAUTYPE = 2              :2-default,only(U-J)is meaningfull
   LDAUL = 2 -1 -1         :-1\=no on-site terms added
   1 = p
   2 = d 3\=f
   LDAUU = 2.5  0 0
   LMAXMIX = 4
   MAGMOM = 0 0 4.0 0 0 4.0 0 0 -4.0 0 0 -4.0 48*0

 POTCAR:    PAW_PBE Fe 06Sep2000                  
 POTCAR:    PAW_PBE P 06Sep2000                   
 POTCAR:    PAW_PBE S 06Sep2000                   
 -----------------------------------------------------------------------------
|                                                                             |
|           W    W    AA    RRRRR   N    N  II  N    N   GGGG   !!!           |
|           W    W   A  A   R    R  NN   N  II  NN   N  G    G  !!!           |
|           W    W  A    A  R    R  N N  N  II  N N  N  G       !!!           |
|           W WW W  AAAAAA  RRRRR   N  N N  II  N  N N  G  GGG   !            |
|           WW  WW  A    A  R   R   N   NN  II  N   NN  G    G                |
|           W    W  A    A  R    R  N    N  II  N    N   GGGG   !!!           |
|                                                                             |
|     For optimal performance we recommend to set                             |
|       NCORE = 2 up to number-of-cores-per-socket                            |
|     NCORE specifies how many cores store one orbital (NPAR=cpu/NCORE).      |
|     This setting can greatly improve the performance of VASP for DFT.       |
|     The default, NCORE=1 might be grossly inefficient on modern             |
|     multi-core architectures or massively parallel machines. Do your        |
|     own testing! More info at https://www.vasp.at/wiki/index.php/NCORE      |
|     Unfortunately you need to use the default for GW and RPA                |
|     calculations (for HF NCORE is supported but not extensively tested      |
|     yet).                                                                   |
|                                                                             |
 -----------------------------------------------------------------------------

 POTCAR:    PAW_PBE Fe 06Sep2000                  
   SHA256 =  cd5a22d9368cc8b5cc476bea79732366149640da08ac9009b0e1b7fc627eea28 Fe/POTCAR             
   COPYR  = (c) Copyright 06Sep2000 Georg Kresse                                                    
   COPYR  = This file is part of the software VASP. Any use, copying, and all other rights are regul
   COPYR  = If you do not have a valid VASP license, you may not use, copy or distribute this file. 
   VRHFIN =Fe:  d7 s1                                                                               
   LEXCH  = PE                                                                                      
   EATOM  =   594.3153 eV,   43.6809 Ry                                                             
                                                                                                    
   TITEL  = PAW_PBE Fe 06Sep2000                                                                    
   LULTRA =        F    use ultrasoft PP ?                                                          
   IUNSCR =        1    unscreen: 0-lin 1-nonlin 2-no                                               
   RPACOR =    2.000    partial core radius                                                         
   POMASS =   55.847; ZVAL   =    8.000    mass and valenz                                          
   RCORE  =    2.300    outmost cutoff radius                                                       
   RWIGS  =    2.460; RWIGS  =    1.302    wigner-seitz radius (au A)                               
   ENMAX  =  267.882; ENMIN  =  200.911 eV                                                          
   RCLOC  =    1.701    cutoff for local pot                                                        
   LCOR   =        T    correct aug charges                                                         
   LPAW   =        T    paw PP                                                                      
   EAUG   =  511.368                                                                                
   DEXC   =    0.000                                                                                
   RMAX   =    2.356    core radius for proj-oper                                                   
   RAUG   =    1.300    factor for augmentation sphere                                              
   RDEP   =    2.442    radius for radial grids                                                     
   RDEPT  =    1.890    core radius for aug-charge                                                  
                                                                                                    
   Atomic configuration                                                                             
    9 entries                                                                                       
     n  l   j            E        occ.                                                              
     1  0  0.50     -6993.8440   2.0000                                                             
     2  0  0.50      -814.6047   2.0000                                                             
     2  1  1.50      -693.3689   6.0000                                                             
     3  0  0.50       -89.4732   2.0000                                                             
     3  1  1.50       -55.6373   6.0000                                                             
     3  2  2.50        -3.8151   7.0000                                                             
     4  0  0.50        -4.2551   1.0000                                                             
     4  1  1.50        -3.4015   0.0000                                                             
     4  3  2.50        -1.3606   0.0000                                                             
   Description                                                                                      
     l       E           TYP  RCUT    TYP  RCUT                                                     
     2     -3.8151135     23  2.300                                                                 
     2     -5.1756961     23  2.300                                                                 
     0     -4.2550963     23  2.300                                                                 
     0      7.2035603     23  2.300                                                                 
     1     -2.7211652     23  2.300                                                                 
     1     18.4316424     23  2.300                                                                 
  local pseudopotential read in
  partial core-charges read in
  partial kinetic energy density read in
  atomic valenz-charges read in
  non local Contribution for L=           2  read in
    real space projection operators read in
  non local Contribution for L=           2  read in
    real space projection operators read in
  non local Contribution for L=           0  read in
    real space projection operators read in
  non local Contribution for L=           0  read in
    real space projection operators read in
  non local Contribution for L=           1  read in
    real space projection operators read in
  non local Contribution for L=           1  read in
    real space projection operators read in
    PAW grid and wavefunctions read in
 
   number of l-projection  operators is LMAX  =           6
   number of lm-projection operators is LMMAX =          18
 
 POTCAR:    PAW_PBE P 06Sep2000                   
   SHA256 =  df60c54a93efe35c9e85ae94c010c75e9f6960a95d5595d7cdba4096d109af88 P/POTCAR              
   COPYR  = (c) Copyright 06Sep2000 Georg Kresse                                                    
   COPYR  = This file is part of the software VASP. Any use, copying, and all other rights are regul
   COPYR  = If you do not have a valid VASP license, you may not use, copy or distribute this file. 
   VRHFIN =P : s2p3                                                                                 
   LEXCH  = PE                                                                                      
   EATOM  =   176.0430 eV,   12.9388 Ry                                                             
                                                                                                    
   TITEL  = PAW_PBE P 06Sep2000                                                                     
   LULTRA =        F    use ultrasoft PP ?                                                          
   IUNSCR =        1    unscreen: 0-lin 1-nonlin 2-no                                               
   RPACOR =    1.500    partial core radius                                                         
   POMASS =   30.974; ZVAL   =    5.000    mass and valenz                                          
   RCORE  =    1.900    outmost cutoff radius                                                       
   RWIGS  =    2.330; RWIGS  =    1.233    wigner-seitz radius (au A)                               
   ENMAX  =  255.040; ENMIN  =  191.280 eV                                                          
   ICORE  =        2    local potential                                                             
   LCOR   =        T    correct aug charges                                                         
   LPAW   =        T    paw PP                                                                      
   EAUG   =  342.924                                                                                
   DEXC   =    0.000                                                                                
   RMAX   =    1.935    core radius for proj-oper                                                   
   RAUG   =    1.300    factor for augmentation sphere                                              
   RDEP   =    1.931    radius for radial grids                                                     
   RDEPT  =    1.794    core radius for aug-charge                                                  
                                                                                                    
   Atomic configuration                                                                             
    6 entries                                                                                       
     n  l   j            E        occ.                                                              
     1  0  0.50     -2084.0982   2.0000                                                             
     2  0  0.50      -173.9859   2.0000                                                             
     2  1  1.50      -124.4865   6.0000                                                             
     3  0  0.50       -13.9692   2.0000                                                             
     3  1  0.50        -5.5067   3.0000                                                             
     3  2  1.50        -5.4423   0.0000                                                             
   Description                                                                                      
     l       E           TYP  RCUT    TYP  RCUT                                                     
     0    -13.9691527     23  1.900                                                                 
     0    -11.7794650     23  1.900                                                                 
     1     -5.5066937     23  1.900                                                                 
     1     -0.2556953     23  1.900                                                                 
     2     -5.4423304     23  1.900                                                                 
  local pseudopotential read in
  partial core-charges read in
  partial kinetic energy density read in
  atomic valenz-charges read in
  non local Contribution for L=           0  read in
    real space projection operators read in
  non local Contribution for L=           0  read in
    real space projection operators read in
  non local Contribution for L=           1  read in
    real space projection operators read in
  non local Contribution for L=           1  read in
    real space projection operators read in
    PAW grid and wavefunctions read in
 
   number of l-projection  operators is LMAX  =           4
   number of lm-projection operators is LMMAX =           8
 
 POTCAR:    PAW_PBE S 06Sep2000                   
   SHA256 =  0fc7481fb0695f01bdc6462160264c5c84044ae9ec85a907d398b887a2bc3132 S/POTCAR              
   COPYR  = (c) Copyright 06Sep2000 Georg Kresse                                                    
   COPYR  = This file is part of the software VASP. Any use, copying, and all other rights are regul
   COPYR  = If you do not have a valid VASP license, you may not use, copy or distribute this file. 
   VRHFIN =S : s2p4                                                                                 
   LEXCH  = PE                                                                                      
   EATOM  =   276.8230 eV,   20.3459 Ry                                                             
                                                                                                    
   TITEL  = PAW_PBE S 06Sep2000                                                                     
   LULTRA =        F    use ultrasoft PP ?                                                          
   IUNSCR =        1    unscreen: 0-lin 1-nonlin 2-no                                               
   RPACOR =    1.500    partial core radius                                                         
   POMASS =   32.066; ZVAL   =    6.000    mass and valenz                                          
   RCORE  =    1.900    outmost cutoff radius                                                       
   RWIGS  =    2.200; RWIGS  =    1.164    wigner-seitz radius (au A)                               
   ENMAX  =  258.689; ENMIN  =  194.016 eV                                                          
   ICORE  =        2    local potential                                                             
   LCOR   =        T    correct aug charges                                                         
   LPAW   =        T    paw PP                                                                      
   EAUG   =  335.092                                                                                
   DEXC   =    0.000                                                                                
   RMAX   =    1.942    core radius for proj-oper                                                   
   RAUG   =    1.300    factor for augmentation sphere                                              
   RDEP   =    1.954    radius for radial grids                                                     
   RDEPT  =    1.744    core radius for aug-charge                                                  
                                                                                                    
   Atomic configuration                                                                             
    6 entries                                                                                       
     n  l   j            E        occ.                                                              
     1  0  0.50     -2405.8406   2.0000                                                             
     2  0  0.50      -211.7007   2.0000                                                             
     2  1  1.50      -156.4958   6.0000                                                             
     3  0  0.50       -17.2562   2.0000                                                             
     3  1  0.50        -7.0085   4.0000                                                             
     3  2  1.50        -6.8029   0.0000                                                             
   Description                                                                                      
     l       E           TYP  RCUT    TYP  RCUT                                                     
     0    -17.2561641     23  1.900                                                                 
     0    -15.8743224     23  1.900                                                                 
     1     -7.0085400     23  1.900                                                                 
     1     -2.7779785     23  1.900                                                                 
     2     -6.8029130     23  1.900                                                                 
  local pseudopotential read in
  partial core-charges read in
  partial kinetic energy density read in
  atomic valenz-charges read in
  non local Contribution for L=           0  read in
    real space projection operators read in
  non local Contribution for L=           0  read in
    real space projection operators read in
  non local Contribution for L=           1  read in
    real space projection operators read in
  non local Contribution for L=           1  read in
    real space projection operators read in
    PAW grid and wavefunctions read in
 
   number of l-projection  operators is LMAX  =           4
   number of lm-projection operators is LMMAX =           8
 
 -----------------------------------------------------------------------------
|                                                                             |
|               ----> ADVICE to this user running VASP <----                  |
|                                                                             |
|     You have a (more or less) 'large supercell' and for larger cells it     |
|     might be more efficient to use real-space projection operators.         |
|     Therefore, try LREAL= Auto in the INCAR file.                           |
|     Mind: For very accurate calculation, you might also keep the            |
|     reciprocal projection scheme (i.e. LREAL=.FALSE.).                      |
|                                                                             |
 -----------------------------------------------------------------------------

  PAW_PBE Fe 06Sep2000                  :
 energy of atom  1       EATOM= -594.3153
 kinetic energy error for atom=    0.0205 (will be added to EATOM!!)
  PAW_PBE P 06Sep2000                   :
 energy of atom  2       EATOM= -176.0430
 kinetic energy error for atom=    0.0024 (will be added to EATOM!!)
  PAW_PBE S 06Sep2000                   :
 energy of atom  3       EATOM= -276.8230
 kinetic energy error for atom=    0.0051 (will be added to EATOM!!)
 
 
 POSCAR: Fe P S3
  positions in direct lattice
  No initial velocities read in
 exchange correlation table for  LEXCH =        8
   RHO(1)=    0.500       N(1)  =     2000
   RHO(2)=  100.500       N(2)  =     4000
 


--------------------------------------------------------------------------------------------------------


 ion  position               nearest neighbor table
   1  0.500  0.173  0.248-  14 2.51  20 2.51  17 2.56  11 2.56   9 2.56  15 2.56
   2  0.000  0.327  0.248-  11 2.51  17 2.51  14 2.56  20 2.56  10 2.56  16 2.56
   3  0.000  0.673  0.248-  12 2.51  18 2.51  13 2.56  19 2.56  10 2.56  16 2.56
   4  0.500  0.827  0.248-  13 2.51  19 2.51  18 2.56  12 2.56   9 2.56  15 2.56
   5  0.056  0.000  0.420-   9 2.03  11 2.05  12 2.05   7 2.20
   6  0.556  0.500  0.420-  10 2.03  13 2.05  14 2.05   8 2.20
   7  0.944  0.000  0.077-  15 2.03  17 2.05  18 2.05   5 2.20
   8  0.444  0.500  0.077-  16 2.03  19 2.05  20 2.05   6 2.20
   9  0.745  0.000  0.491-   5 2.03   4 2.56   1 2.56
  10  0.245  0.500  0.491-   6 2.03   3 2.56   2 2.56
  11  0.249  0.166  0.498-   5 2.05   2 2.51   1 2.56
  12  0.249  0.834  0.498-   5 2.05   3 2.51   4 2.56
  13  0.749  0.666  0.498-   6 2.05   4 2.51   3 2.56
  14  0.749  0.334  0.498-   6 2.05   1 2.51   2 2.56
  15  0.255  0.000  0.006-   7 2.03   4 2.56   1 2.56
  16  0.755  0.500  0.006-   8 2.03   3 2.56   2 2.56
  17  0.751  0.166  0.999-   7 2.05   2 2.51   1 2.56
  18  0.751  0.834  0.999-   7 2.05   3 2.51   4 2.56
  19  0.251  0.666  0.999-   8 2.05   4 2.51   3 2.56
  20  0.251  0.334  0.999-   8 2.05   1 2.51   2 2.56
 
  LATTYP: Found a simple monoclinic cell.
 ALAT       =     5.9159270632
 B/A-ratio  =     1.7500003316
 C/A-ratio  =     1.1414321182
 COS(beta)  =    -0.3002358439
  
  Lattice vectors:
  
 A1 = (   5.9158742987,   0.0000000000,  -0.0249859676)
 A2 = (   0.0000000000,  10.3528743225,   0.0000000000)
 A3 = (  -2.0001592063,   0.0000000000,   6.4496018251)


Analysis of symmetry for initial positions (statically):
=====================================================================
 Subroutine PRICEL returns following result:
 
  LATTYP: Found a base centered monoclinic cell.
 ALAT       =     5.9159270632
 B/A-ratio  =     1.7500003316
 C/A-ratio  =     1.1414321182
 COS(beta)  =    -0.3002358439
  
  Lattice vectors:
  
 A1 = (   2.9579371494,  -5.1764371612,  -0.0124929838)
 A2 = (   2.9579371494,   5.1764371612,  -0.0124929838)
 A3 = (  -2.0001592063,   0.0000000000,   6.4496018251)
 
   2 primitive cells build up your supercell.
 

 Routine SETGRP: Setting up the symmetry group for a 
 simple monoclinic supercell.


 Subroutine GETGRP returns: Found  4 space group operations
 (whereof  2 operations were pure point group operations)
 out of a pool of  4 trial point group operations.


The static configuration has the point symmetry C_1h.
 The point group associated with its full space group is C_2h.


Analysis of symmetry for dynamics (positions and initial velocities):
=====================================================================
 Subroutine PRICEL returns following result:
 
  LATTYP: Found a base centered monoclinic cell.
 ALAT       =     5.9159270632
 B/A-ratio  =     1.7500003316
 C/A-ratio  =     1.1414321182
 COS(beta)  =    -0.3002358439
  
  Lattice vectors:
  
 A1 = (   2.9579371494,  -5.1764371612,  -0.0124929838)
 A2 = (   2.9579371494,   5.1764371612,  -0.0124929838)
 A3 = (  -2.0001592063,   0.0000000000,   6.4496018251)
 
   2 primitive cells build up your supercell.
 

 Routine SETGRP: Setting up the symmetry group for a 
 simple monoclinic supercell.


 Subroutine GETGRP returns: Found  4 space group operations
 (whereof  2 operations were pure point group operations)
 out of a pool of  4 trial point group operations.


The dynamic configuration has the point symmetry C_1h.
 The point group associated with its full space group is C_2h.


Analysis of structural, dynamic, and magnetic symmetry:
=====================================================================
 Subroutine PRICEL returns:
 Original cell was already a primitive cell.
 

 Routine SETGRP: Setting up the symmetry group for a 
 simple monoclinic supercell.


 Subroutine GETGRP returns: Found  4 space group operations
 (whereof  2 operations were pure point group operations)
 out of a pool of  4 trial point group operations.


The overall configuration has the point symmetry C_1h.
 The point group associated with its full space group is C_2h.


 Subroutine INISYM returns: Found  4 space group operations
 (whereof  2 operations are pure point group operations),
 and found     1 'primitive' translations


----------------------------------------------------------------------------------------

                                     Primitive cell                                     

  volume of cell :     394.4969

  direct lattice vectors                    reciprocal lattice vectors
     5.915874299  0.000000000 -0.024985968     0.169258419  0.000000000  0.052490649
     0.000000000 10.352874322  0.000000000     0.000000000  0.096591533  0.000000000
    -2.000159206  0.000000000  6.449601825     0.000655713  0.000000000  0.155251682

  length of vectors
     5.915927063 10.352874322  6.752629159     0.177210836  0.096591533  0.155253066

  position of ions in fractional coordinates (direct lattice)
     0.500000000  0.173257906  0.248500000
     1.000000000  0.326742094  0.248500000
     1.000000000  0.673257906  0.248500000
     0.500000000  0.826742094  0.248500000
     0.055518036  0.000000000  0.419559256
     0.555518036  0.500000000  0.419559256
     0.944481964  0.000000000  0.077440744
     0.444481964  0.500000000  0.077440744
     0.745180559  0.000000000  0.491144775
     0.245180559  0.500000000  0.491144775
     0.249288708  0.165953369  0.498487996
     0.249288708  0.834046631  0.498487996
     0.749288708  0.665953369  0.498487996
     0.749288708  0.334046631  0.498487996
     0.254819441  0.000000000  0.005855225
     0.754819441  0.500000000  0.005855225
     0.750711292  0.165953369  0.998512004
     0.750711292  0.834046631  0.998512004
     0.250711292  0.665953369  0.998512004
     0.250711292  0.334046631  0.998512004

  ion indices of the primitive-cell ions
   primitive index   ion index
                 1           1
                 2           2
                 3           3
                 4           4
                 5           5
                 6           6
                 7           7
                 8           8
                 9           9
                10          10
                11          11
                12          12
                13          13
                14          14
                15          15
                16          16
                17          17
                18          18
                19          19
                20          20

----------------------------------------------------------------------------------------

 
 
 KPOINTS: k-points along high symmetry lines for h

Interpolating k-points between supplied coordinates.

 Line segments in fractional coordinates (reciprocal lattice):
    0.000000  0.000000  0.000000  ...  0.000000  0.000000  0.500000
    0.000000  0.000000  0.500000  ... -0.404762  0.000000  0.634921
   -0.404762  0.000000  0.634921  ... -0.500000  0.000000  0.500000
   -0.500000  0.000000  0.500000  ... -0.500000  0.500000  0.500000
   -0.500000  0.500000  0.500000  ... -0.595238  0.500000  0.365079
   -0.595238  0.500000  0.365079  ... -0.500000  0.500000  0.000000
   -0.500000  0.500000  0.000000  ... -0.500000  0.000000  0.000000
   -0.500000  0.000000  0.000000  ... -0.595238  0.000000  0.365079

 Generated    20 points on each line segment, for a total of    160 k-points:

 Following reciprocal coordinates:
            Coordinates               Weight
  0.000000  0.000000  0.000000      0.006250
  0.000000  0.000000  0.026316      0.006250
  0.000000  0.000000  0.052632      0.006250
  0.000000  0.000000  0.078947      0.006250
  0.000000  0.000000  0.105263      0.006250
  0.000000  0.000000  0.131579      0.006250
  0.000000  0.000000  0.157895      0.006250
  0.000000  0.000000  0.184211      0.006250
  0.000000  0.000000  0.210526      0.006250
  0.000000  0.000000  0.236842      0.006250
  0.000000  0.000000  0.263158      0.006250
  0.000000  0.000000  0.289474      0.006250
  0.000000  0.000000  0.315789      0.006250
  0.000000  0.000000  0.342105      0.006250
  0.000000  0.000000  0.368421      0.006250
  0.000000  0.000000  0.394737      0.006250
  0.000000  0.000000  0.421053      0.006250
  0.000000  0.000000  0.447368      0.006250
  0.000000  0.000000  0.473684      0.006250
  0.000000  0.000000  0.500000      0.006250
  0.000000  0.000000  0.500000      0.006250
 -0.021303  0.000000  0.507101      0.006250
 -0.042607  0.000000  0.514202      0.006250
 -0.063910  0.000000  0.521303      0.006250
 -0.085213  0.000000  0.528404      0.006250
 -0.106516  0.000000  0.535505      0.006250
 -0.127820  0.000000  0.542607      0.006250
 -0.149123  0.000000  0.549708      0.006250
 -0.170426  0.000000  0.556809      0.006250
 -0.191729  0.000000  0.563910      0.006250
 -0.213033  0.000000  0.571011      0.006250
 -0.234336  0.000000  0.578112      0.006250
 -0.255639  0.000000  0.585213      0.006250
 -0.276942  0.000000  0.592314      0.006250
 -0.298246  0.000000  0.599415      0.006250
 -0.319549  0.000000  0.606516      0.006250
 -0.340852  0.000000  0.613617      0.006250
 -0.362155  0.000000  0.620718      0.006250
 -0.383459  0.000000  0.627820      0.006250
 -0.404762  0.000000  0.634921      0.006250
 -0.404762  0.000000  0.634921      0.006250
 -0.409774  0.000000  0.627820      0.006250
 -0.414787  0.000000  0.620718      0.006250
 -0.419799  0.000000  0.613617      0.006250
 -0.424812  0.000000  0.606516      0.006250
 -0.429825  0.000000  0.599415      0.006250
 -0.434837  0.000000  0.592314      0.006250
 -0.439850  0.000000  0.585213      0.006250
 -0.444862  0.000000  0.578112      0.006250
 -0.449875  0.000000  0.571011      0.006250
 -0.454887  0.000000  0.563910      0.006250
 -0.459900  0.000000  0.556809      0.006250
 -0.464912  0.000000  0.549708      0.006250
 -0.469925  0.000000  0.542607      0.006250
 -0.474937  0.000000  0.535505      0.006250
 -0.479950  0.000000  0.528404      0.006250
 -0.484962  0.000000  0.521303      0.006250
 -0.489975  0.000000  0.514202      0.006250
 -0.494987  0.000000  0.507101      0.006250
 -0.500000  0.000000  0.500000      0.006250
 -0.500000  0.000000  0.500000      0.006250
 -0.500000  0.026316  0.500000      0.006250
 -0.500000  0.052632  0.500000      0.006250
 -0.500000  0.078947  0.500000      0.006250
 -0.500000  0.105263  0.500000      0.006250
 -0.500000  0.131579  0.500000      0.006250
 -0.500000  0.157895  0.500000      0.006250
 -0.500000  0.184211  0.500000      0.006250
 -0.500000  0.210526  0.500000      0.006250
 -0.500000  0.236842  0.500000      0.006250
 -0.500000  0.263158  0.500000      0.006250
 -0.500000  0.289474  0.500000      0.006250
 -0.500000  0.315789  0.500000      0.006250
 -0.500000  0.342105  0.500000      0.006250
 -0.500000  0.368421  0.500000      0.006250
 -0.500000  0.394737  0.500000      0.006250
 -0.500000  0.421053  0.500000      0.006250
 -0.500000  0.447368  0.500000      0.006250
 -0.500000  0.473684  0.500000      0.006250
 -0.500000  0.500000  0.500000      0.006250
 -0.500000  0.500000  0.500000      0.006250
 -0.505013  0.500000  0.492899      0.006250
 -0.510025  0.500000  0.485798      0.006250
 -0.515038  0.500000  0.478697      0.006250
 -0.520050  0.500000  0.471596      0.006250
 -0.525063  0.500000  0.464495      0.006250
 -0.530075  0.500000  0.457393      0.006250
 -0.535088  0.500000  0.450292      0.006250
 -0.540100  0.500000  0.443191      0.006250
 -0.545113  0.500000  0.436090      0.006250
 -0.550125  0.500000  0.428989      0.006250
 -0.555138  0.500000  0.421888      0.006250
 -0.560150  0.500000  0.414787      0.006250
 -0.565163  0.500000  0.407686      0.006250
 -0.570175  0.500000  0.400585      0.006250
 -0.575188  0.500000  0.393484      0.006250
 -0.580201  0.500000  0.386383      0.006250
 -0.585213  0.500000  0.379282      0.006250
 -0.590226  0.500000  0.372180      0.006250
 -0.595238  0.500000  0.365079      0.006250
 -0.595238  0.500000  0.365079      0.006250
 -0.590226  0.500000  0.345865      0.006250
 -0.585213  0.500000  0.326650      0.006250
 -0.580201  0.500000  0.307435      0.006250
 -0.575188  0.500000  0.288221      0.006250
 -0.570175  0.500000  0.269006      0.006250
 -0.565163  0.500000  0.249791      0.006250
 -0.560150  0.500000  0.230576      0.006250
 -0.555138  0.500000  0.211362      0.006250
 -0.550125  0.500000  0.192147      0.006250
 -0.545113  0.500000  0.172932      0.006250
 -0.540100  0.500000  0.153718      0.006250
 -0.535088  0.500000  0.134503      0.006250
 -0.530075  0.500000  0.115288      0.006250
 -0.525063  0.500000  0.096074      0.006250
 -0.520050  0.500000  0.076859      0.006250
 -0.515038  0.500000  0.057644      0.006250
 -0.510025  0.500000  0.038429      0.006250
 -0.505013  0.500000  0.019215      0.006250
 -0.500000  0.500000  0.000000      0.006250
 -0.500000  0.500000  0.000000      0.006250
 -0.500000  0.473684  0.000000      0.006250
 -0.500000  0.447368  0.000000      0.006250
 -0.500000  0.421053  0.000000      0.006250
 -0.500000  0.394737  0.000000      0.006250
 -0.500000  0.368421  0.000000      0.006250
 -0.500000  0.342105  0.000000      0.006250
 -0.500000  0.315789  0.000000      0.006250
 -0.500000  0.289474  0.000000      0.006250
 -0.500000  0.263158  0.000000      0.006250
 -0.500000  0.236842  0.000000      0.006250
 -0.500000  0.210526  0.000000      0.006250
 -0.500000  0.184211  0.000000      0.006250
 -0.500000  0.157895  0.000000      0.006250
 -0.500000  0.131579  0.000000      0.006250
 -0.500000  0.105263  0.000000      0.006250
 -0.500000  0.078947  0.000000      0.006250
 -0.500000  0.052632  0.000000      0.006250
 -0.500000  0.026316  0.000000      0.006250
 -0.500000  0.000000  0.000000      0.006250
 -0.500000  0.000000  0.000000      0.006250
 -0.505013  0.000000  0.019215      0.006250
 -0.510025  0.000000  0.038429      0.006250
 -0.515038  0.000000  0.057644      0.006250
 -0.520050  0.000000  0.076859      0.006250
 -0.525063  0.000000  0.096074      0.006250
 -0.530075  0.000000  0.115288      0.006250
 -0.535088  0.000000  0.134503      0.006250
 -0.540100  0.000000  0.153718      0.006250
 -0.545113  0.000000  0.172932      0.006250
 -0.550125  0.000000  0.192147      0.006250
 -0.555138  0.000000  0.211362      0.006250
 -0.560150  0.000000  0.230576      0.006250
 -0.565163  0.000000  0.249791      0.006250
 -0.570175  0.000000  0.269006      0.006250
 -0.575188  0.000000  0.288221      0.006250
 -0.580201  0.000000  0.307435      0.006250
 -0.585213  0.000000  0.326650      0.006250
 -0.590226  0.000000  0.345865      0.006250
 -0.595238  0.000000  0.365079      0.006250

 Following cartesian coordinates:
            Coordinates               Weight
  0.000000  0.000000  0.000000      0.006250
  0.000017  0.000000  0.004086      0.006250
  0.000035  0.000000  0.008171      0.006250
  0.000052  0.000000  0.012257      0.006250
  0.000069  0.000000  0.016342      0.006250
  0.000086  0.000000  0.020428      0.006250
  0.000104  0.000000  0.024513      0.006250
  0.000121  0.000000  0.028599      0.006250
  0.000138  0.000000  0.032685      0.006250
  0.000155  0.000000  0.036770      0.006250
  0.000173  0.000000  0.040856      0.006250
  0.000190  0.000000  0.044941      0.006250
  0.000207  0.000000  0.049027      0.006250
  0.000224  0.000000  0.053112      0.006250
  0.000242  0.000000  0.057198      0.006250
  0.000259  0.000000  0.061284      0.006250
  0.000276  0.000000  0.065369      0.006250
  0.000293  0.000000  0.069455      0.006250
  0.000311  0.000000  0.073540      0.006250
  0.000328  0.000000  0.077626      0.006250
  0.000328  0.000000  0.077626      0.006250
 -0.003273  0.000000  0.077610      0.006250
 -0.006874  0.000000  0.077594      0.006250
 -0.010475  0.000000  0.077579      0.006250
 -0.014077  0.000000  0.077563      0.006250
 -0.017678  0.000000  0.077547      0.006250
 -0.021279  0.000000  0.077531      0.006250
 -0.024880  0.000000  0.077515      0.006250
 -0.028481  0.000000  0.077500      0.006250
 -0.032082  0.000000  0.077484      0.006250
 -0.035683  0.000000  0.077468      0.006250
 -0.039284  0.000000  0.077452      0.006250
 -0.042885  0.000000  0.077437      0.006250
 -0.046486  0.000000  0.077421      0.006250
 -0.050088  0.000000  0.077405      0.006250
 -0.053689  0.000000  0.077389      0.006250
 -0.057290  0.000000  0.077374      0.006250
 -0.060891  0.000000  0.077358      0.006250
 -0.064492  0.000000  0.077342      0.006250
 -0.068093  0.000000  0.077326      0.006250
 -0.068093  0.000000  0.077326      0.006250
 -0.068946  0.000000  0.075961      0.006250
 -0.069799  0.000000  0.074595      0.006250
 -0.070652  0.000000  0.073230      0.006250
 -0.071505  0.000000  0.071864      0.006250
 -0.072358  0.000000  0.070498      0.006250
 -0.073211  0.000000  0.069133      0.006250
 -0.074065  0.000000  0.067767      0.006250
 -0.074918  0.000000  0.066402      0.006250
 -0.075771  0.000000  0.065036      0.006250
 -0.076624  0.000000  0.063671      0.006250
 -0.077477  0.000000  0.062305      0.006250
 -0.078330  0.000000  0.060939      0.006250
 -0.079183  0.000000  0.059574      0.006250
 -0.080036  0.000000  0.058208      0.006250
 -0.080889  0.000000  0.056843      0.006250
 -0.081742  0.000000  0.055477      0.006250
 -0.082595  0.000000  0.054112      0.006250
 -0.083448  0.000000  0.052746      0.006250
 -0.084301  0.000000  0.051381      0.006250
 -0.084301  0.000000  0.051381      0.006250
 -0.084301  0.002542  0.051381      0.006250
 -0.084301  0.005084  0.051381      0.006250
 -0.084301  0.007626  0.051381      0.006250
 -0.084301  0.010168  0.051381      0.006250
 -0.084301  0.012709  0.051381      0.006250
 -0.084301  0.015251  0.051381      0.006250
 -0.084301  0.017793  0.051381      0.006250
 -0.084301  0.020335  0.051381      0.006250
 -0.084301  0.022877  0.051381      0.006250
 -0.084301  0.025419  0.051381      0.006250
 -0.084301  0.027961  0.051381      0.006250
 -0.084301  0.030503  0.051381      0.006250
 -0.084301  0.033044  0.051381      0.006250
 -0.084301  0.035586  0.051381      0.006250
 -0.084301  0.038128  0.051381      0.006250
 -0.084301  0.040670  0.051381      0.006250
 -0.084301  0.043212  0.051381      0.006250
 -0.084301  0.045754  0.051381      0.006250
 -0.084301  0.048296  0.051381      0.006250
 -0.084301  0.048296  0.051381      0.006250
 -0.085154  0.048296  0.050015      0.006250
 -0.086007  0.048296  0.048649      0.006250
 -0.086861  0.048296  0.047284      0.006250
 -0.087714  0.048296  0.045918      0.006250
 -0.088567  0.048296  0.044553      0.006250
 -0.089420  0.048296  0.043187      0.006250
 -0.090273  0.048296  0.041822      0.006250
 -0.091126  0.048296  0.040456      0.006250
 -0.091979  0.048296  0.039090      0.006250
 -0.092832  0.048296  0.037725      0.006250
 -0.093685  0.048296  0.036359      0.006250
 -0.094538  0.048296  0.034994      0.006250
 -0.095391  0.048296  0.033628      0.006250
 -0.096244  0.048296  0.032263      0.006250
 -0.097097  0.048296  0.030897      0.006250
 -0.097950  0.048296  0.029531      0.006250
 -0.098804  0.048296  0.028166      0.006250
 -0.099657  0.048296  0.026800      0.006250
 -0.100510  0.048296  0.025435      0.006250
 -0.100510  0.048296  0.025435      0.006250
 -0.099674  0.048296  0.022715      0.006250
 -0.098838  0.048296  0.019995      0.006250
 -0.098002  0.048296  0.017275      0.006250
 -0.097166  0.048296  0.014555      0.006250
 -0.096331  0.048296  0.011835      0.006250
 -0.095495  0.048296  0.009115      0.006250
 -0.094659  0.048296  0.006395      0.006250
 -0.093823  0.048296  0.003675      0.006250
 -0.092987  0.048296  0.000955      0.006250
 -0.092152  0.048296 -0.001765      0.006250
 -0.091316  0.048296 -0.004485      0.006250
 -0.090480  0.048296 -0.007205      0.006250
 -0.089644  0.048296 -0.009925      0.006250
 -0.088808  0.048296 -0.012645      0.006250
 -0.087972  0.048296 -0.015365      0.006250
 -0.087137  0.048296 -0.018085      0.006250
 -0.086301  0.048296 -0.020805      0.006250
 -0.085465  0.048296 -0.023525      0.006250
 -0.084629  0.048296 -0.026245      0.006250
 -0.084629  0.048296 -0.026245      0.006250
 -0.084629  0.045754 -0.026245      0.006250
 -0.084629  0.043212 -0.026245      0.006250
 -0.084629  0.040670 -0.026245      0.006250
 -0.084629  0.038128 -0.026245      0.006250
 -0.084629  0.035586 -0.026245      0.006250
 -0.084629  0.033044 -0.026245      0.006250
 -0.084629  0.030503 -0.026245      0.006250
 -0.084629  0.027961 -0.026245      0.006250
 -0.084629  0.025419 -0.026245      0.006250
 -0.084629  0.022877 -0.026245      0.006250
 -0.084629  0.020335 -0.026245      0.006250
 -0.084629  0.017793 -0.026245      0.006250
 -0.084629  0.015251 -0.026245      0.006250
 -0.084629  0.012709 -0.026245      0.006250
 -0.084629  0.010168 -0.026245      0.006250
 -0.084629  0.007626 -0.026245      0.006250
 -0.084629  0.005084 -0.026245      0.006250
 -0.084629  0.002542 -0.026245      0.006250
 -0.084629  0.000000 -0.026245      0.006250
 -0.084629  0.000000 -0.026245      0.006250
 -0.085465  0.000000 -0.023525      0.006250
 -0.086301  0.000000 -0.020805      0.006250
 -0.087137  0.000000 -0.018085      0.006250
 -0.087972  0.000000 -0.015365      0.006250
 -0.088808  0.000000 -0.012645      0.006250
 -0.089644  0.000000 -0.009925      0.006250
 -0.090480  0.000000 -0.007205      0.006250
 -0.091316  0.000000 -0.004485      0.006250
 -0.092152  0.000000 -0.001765      0.006250
 -0.092987  0.000000  0.000955      0.006250
 -0.093823  0.000000  0.003675      0.006250
 -0.094659  0.000000  0.006395      0.006250
 -0.095495  0.000000  0.009115      0.006250
 -0.096331  0.000000  0.011835      0.006250
 -0.097166  0.000000  0.014555      0.006250
 -0.098002  0.000000  0.017275      0.006250
 -0.098838  0.000000  0.019995      0.006250
 -0.099674  0.000000  0.022715      0.006250
 -0.100510  0.000000  0.025435      0.006250
 


--------------------------------------------------------------------------------------------------------




 Dimension of arrays:
   k-points           NKPTS =    160   k-points in BZ     NKDIM =    160   number of bands    NBANDS=    152
   number of dos      NEDOS =    301   number of ions     NIONS =     20
   non local maximal  LDIM  =      6   non local SUM 2l+1 LMDIM =     18
   total plane-waves  NPLWV =  96768
   max r-space proj   IRMAX =      1   max aug-charges    IRDMAX=   8936
   dimension x,y,z NGX =    36 NGY =   64 NGZ =   42
   dimension x,y,z NGXF=    72 NGYF=  128 NGZF=   84
   support grid    NGXF=    72 NGYF=  128 NGZF=   84
   ions per type =               4   4  12
   NGX,Y,Z   is equivalent  to a cutoff of  10.12, 10.28, 10.34 a.u.
   NGXF,Y,Z  is equivalent  to a cutoff of  20.23, 20.55, 20.68 a.u.

 SYSTEM =  unknown system                          
 POSCAR =  Fe P S3                                 

 Startparameter for this run:
   NWRITE =      2    write-flag & timer
   PREC   = accura    normal or accurate (medium, high low for compatibility)
   ISTART =      0    job   : 0-new  1-cont  2-samecut
   ICHARG =     11    charge: 1-file 2-atom 10-const
   ISPIN  =      1    spin polarized calculation?
   LNONCOLLINEAR =      T non collinear calculations
   LSORBIT =      T    spin-orbit coupling
   INIWAV =      1    electr: 0-lowe 1-rand  2-diag
   LASPH  =      F    aspherical Exc in radial PAW
 Electronic Relaxation 1
   ENCUT  =  350.0 eV  25.72 Ry    5.07 a.u.   9.02 15.79 10.30*2*pi/ulx,y,z
   ENINI  =  350.0     initial cutoff
   ENAUG  =  511.4 eV  augmentation charge cutoff
   NELM   =    300;   NELMIN=  2; NELMDL= -5     # of ELM steps 
   EDIFF  = 0.1E-05   stopping-criterion for ELM
   LREAL  =      F    real-space projection
   NLSPLINE    = F    spline interpolate recip. space projectors
   LCOMPAT=      F    compatible to vasp.4.4
   GGA_COMPAT  = T    GGA compatible to vasp.4.4-vasp.4.6
   LMAXPAW     = -100 max onsite density
   LMAXMIX     =    4 max onsite mixed and CHGCAR
   VOSKOWN=      0    Vosko Wilk Nusair interpolation
   ROPT   =    0.00000   0.00000   0.00000
 Ionic relaxation
   EDIFFG = 0.1E-04   stopping-criterion for IOM
   NSW    =      0    number of steps for IOM
   NBLOCK =      1;   KBLOCK =      1    inner block; outer block 
   IBRION =     -1    ionic relax: 0-MD 1-quasi-New 2-CG
   NFREE  =      0    steps in history (QN), initial steepest desc. (CG)
   ISIF   =      2    stress and relaxation
   IWAVPR =     10    prediction:  0-non 1-charg 2-wave 3-comb
   ISYM   =      2    0-nonsym 1-usesym 2-fastsym
   LCORR  =      T    Harris-Foulkes like correction to forces

   POTIM  = 0.5000    time-step for ionic-motion
   TEIN   =    0.0    initial temperature
   TEBEG  =    0.0;   TEEND  =   0.0 temperature during run
   SMASS  =  -3.00    Nose mass-parameter (am)
   estimated Nose-frequenzy (Omega)   =  0.10E-29 period in steps = 0.13E+47 mass=  -0.800E-27a.u.
   SCALEE = 1.0000    scale energy and forces
   NPACO  =    256;   APACO  = 10.0  distance and # of slots for P.C.
   PSTRESS=    0.0 pullay stress

  Mass of Ions in am
   POMASS =  55.85 30.97 32.07
  Ionic Valenz
   ZVAL   =   8.00  5.00  6.00
  Atomic Wigner-Seitz radii
   RWIGS  =  -1.00 -1.00 -1.00
  virtual crystal weights 
   VCA    =   1.00  1.00  1.00
   NELECT =     124.0000    total number of electrons
   NUPDOWN=      -1.0000    fix difference up-down

 DOS related values:
   EMIN   =  10.00;   EMAX   =-10.00  energy-range for DOS
   EFERMI =   0.00;   METHOD = LEGACY      
   ISMEAR =     0;   SIGMA  =   0.20  broadening in eV -4-tet -1-fermi 0-gaus

 Electronic relaxation 2 (details)
   IALGO  =     38    algorithm
   LDIAG  =      T    sub-space diagonalisation (order eigenvalues)
   LSUBROT=      F    optimize rotation matrix (better conditioning)
   TURBO    =      0    0=normal 1=particle mesh
   IRESTART =      0    0=no restart 2=restart with 2 vectors
   NREBOOT  =      0    no. of reboots
   NMIN     =      0    reboot dimension
   EREF     =   0.00    reference energy to select bands
   IMIX   =      4    mixing-type and parameters
     AMIX     =   0.40;   BMIX     =  1.00
     AMIX_MAG =   1.60;   BMIX_MAG =  1.00
     AMIN     =   0.10
     WC   =   100.;   INIMIX=   1;  MIXPRE=   1;  MAXMIX= -45

 Intra band minimization:
   WEIMIN = 0.0000     energy-eigenvalue tresh-hold
   EBREAK =  0.16E-08  absolut break condition
   DEPER  =   0.30     relativ break condition  

   TIME   =   0.40     timestep for ELM

  volume/ion in A,a.u.               =      19.72       133.11
  Fermi-wavevector in a.u.,A,eV,Ry     =   1.113100  2.103454 16.857506  1.238992
  Thomas-Fermi vector in A             =   2.249681
 
 Write flags
   LWAVE        =      T    write WAVECAR
   LDOWNSAMPLE  =      F    k-point downsampling of WAVECAR
   LCHARG       =      T    write CHGCAR
   LVTOT        =      F    write LOCPOT, total local potential
   LVHAR        =      F    write LOCPOT, Hartree potential only
   LELF         =      F    write electronic localiz. function (ELF)
   LORBIT       =     11    0 simple, 1 ext, 2 COOP (PROOUT), +10 PAW based schemes


 Dipole corrections
   LMONO  =      F    monopole corrections only (constant potential shift)
   LDIPOL =      F    correct potential (dipole corrections)
   IDIPOL =      0    1-x, 2-y, 3-z, 4-all directions 
   EPSILON=  1.0000000 bulk dielectric constant

 LDA+U is selected, type is set to LDAUTYPE =  2
   angular momentum for each species LDAUL =     2   -1   -1
   U (eV)           for each species LDAUU =   2.5  0.0  0.0
   J (eV)           for each species LDAUJ =   0.0  0.0  0.0
 Exchange correlation treatment:
   GGA     =    --    GGA type
   LEXCH   =     8    internal setting for exchange type
   LIBXC   =     F    Libxc                    
   VOSKOWN =     0    Vosko Wilk Nusair interpolation
   LHFCALC =     F    Hartree Fock is set to
   LHFONE  =     F    Hartree Fock one center treatment
   AEXX    =    0.0000 exact exchange contribution

 Linear response parameters
   LEPSILON=     F    determine dielectric tensor
   LRPA    =     F    only Hartree local field effects (RPA)
   LNABLA  =     F    use nabla operator in PAW spheres
   LVEL    =     F    velocity operator in full k-point grid
   CSHIFT  =0.1000    complex shift for real part using Kramers Kronig
   OMEGAMAX=  -1.0    maximum frequency
   DEG_THRESHOLD= 0.2000000E-02 threshold for treating states as degnerate
   RTIME   =   -0.100 relaxation time in fs
  (WPLASMAI=    0.000 imaginary part of plasma frequency in eV, 0.658/RTIME)
   DFIELD  = 0.0000000 0.0000000 0.0000000 field for delta impulse in time
 
  Optional k-point grid parameters
   LKPOINTS_OPT  =     F    use optional k-point grid
   KPOINTS_OPT_MODE=     1    mode for optional k-point grid
 
 Orbital magnetization related:
   ORBITALMAG=     F  switch on orbital magnetization
   LCHIMAG   =     F  perturbation theory with respect to B field
   DQ        =  0.001000  dq finite difference perturbation B field
   LLRAUG    =     F  two centre corrections for induced B field
   LBONE     =     F  B-component reconstruction in AE one-centre
   LVGVCALC  =     T  calculate vGv susceptibility
   LVGVAPPL  =     F  apply vGv susceptibility instead of pGv for G=0

 Random number generation:
   RANDOM_GENERATOR = DEFAULT
   PCG_SEED         = not used


--------------------------------------------------------------------------------------------------------


 Static calculation
 charge density and potential remain constant during run
 non collinear spin polarized calculation
 Variant of blocked Davidson
 Davidson routine will perform the subspace rotation
 perform sub-space diagonalisation
    after iterative eigenvector-optimisation
 no mixing
 using additional bands           90
 reciprocal scheme for non local part
 use partial core corrections
 calculate Harris-corrections to forces 
   (improved forces if not selfconsistent)
 use gradient corrections 
 WARNING: stress and forces are not correct
  (second derivative of E(xc) not defined)
 use of overlap-Matrix (Vanderbilt PP)
 Gauss-broadening in eV      SIGMA  =   0.20


--------------------------------------------------------------------------------------------------------


  energy-cutoff  :      350.00
  volume of cell :      394.50
      direct lattice vectors                 reciprocal lattice vectors
     5.915874299  0.000000000 -0.024985968     0.169258419  0.000000000  0.052490649
     0.000000000 10.352874322  0.000000000     0.000000000  0.096591533  0.000000000
    -2.000159206  0.000000000  6.449601825     0.000655713  0.000000000  0.155251682

  length of vectors
     5.915927063 10.352874322  6.752629159     0.177210836  0.096591533  0.155253066


 
 k-points in units of 2pi/SCALE and weight: k-points along high symmetry lines for h
   0.00000000  0.00000000  0.00000000       0.006
   0.00001726  0.00000000  0.00408557       0.006
   0.00003451  0.00000000  0.00817114       0.006
   0.00005177  0.00000000  0.01225671       0.006
   0.00006902  0.00000000  0.01634228       0.006
   0.00008628  0.00000000  0.02042785       0.006
   0.00010353  0.00000000  0.02451342       0.006
   0.00012079  0.00000000  0.02859899       0.006
   0.00013804  0.00000000  0.03268456       0.006
   0.00015530  0.00000000  0.03677014       0.006
   0.00017256  0.00000000  0.04085571       0.006
   0.00018981  0.00000000  0.04494128       0.006
   0.00020707  0.00000000  0.04902685       0.006
   0.00022432  0.00000000  0.05311242       0.006
   0.00024158  0.00000000  0.05719799       0.006
   0.00025883  0.00000000  0.06128356       0.006
   0.00027609  0.00000000  0.06536913       0.006
   0.00029335  0.00000000  0.06945470       0.006
   0.00031060  0.00000000  0.07354027       0.006
   0.00032786  0.00000000  0.07762584       0.006
   0.00032786  0.00000000  0.07762584       0.006
  -0.00327324  0.00000000  0.07761007       0.006
  -0.00687434  0.00000000  0.07759431       0.006
  -0.01047544  0.00000000  0.07757854       0.006
  -0.01407654  0.00000000  0.07756278       0.006
  -0.01767764  0.00000000  0.07754701       0.006
  -0.02127874  0.00000000  0.07753124       0.006
  -0.02487984  0.00000000  0.07751548       0.006
  -0.02848094  0.00000000  0.07749971       0.006
  -0.03208204  0.00000000  0.07748394       0.006
  -0.03568314  0.00000000  0.07746818       0.006
  -0.03928424  0.00000000  0.07745241       0.006
  -0.04288534  0.00000000  0.07743665       0.006
  -0.04648644  0.00000000  0.07742088       0.006
  -0.05008754  0.00000000  0.07740511       0.006
  -0.05368864  0.00000000  0.07738935       0.006
  -0.05728974  0.00000000  0.07737358       0.006
  -0.06089084  0.00000000  0.07735781       0.006
  -0.06449194  0.00000000  0.07734205       0.006
  -0.06809303  0.00000000  0.07732628       0.006
  -0.06809303  0.00000000  0.07732628       0.006
  -0.06894610  0.00000000  0.07596071       0.006
  -0.06979917  0.00000000  0.07459515       0.006
  -0.07065224  0.00000000  0.07322958       0.006
  -0.07150531  0.00000000  0.07186402       0.006
  -0.07235838  0.00000000  0.07049845       0.006
  -0.07321145  0.00000000  0.06913288       0.006
  -0.07406452  0.00000000  0.06776732       0.006
  -0.07491759  0.00000000  0.06640175       0.006
  -0.07577066  0.00000000  0.06503618       0.006
  -0.07662373  0.00000000  0.06367062       0.006
  -0.07747680  0.00000000  0.06230505       0.006
  -0.07832987  0.00000000  0.06093948       0.006
  -0.07918294  0.00000000  0.05957392       0.006
  -0.08003601  0.00000000  0.05820835       0.006
  -0.08088908  0.00000000  0.05684278       0.006
  -0.08174214  0.00000000  0.05547722       0.006
  -0.08259521  0.00000000  0.05411165       0.006
  -0.08344828  0.00000000  0.05274608       0.006
  -0.08430135  0.00000000  0.05138052       0.006
  -0.08430135  0.00000000  0.05138052       0.006
  -0.08430135  0.00254188  0.05138052       0.006
  -0.08430135  0.00508376  0.05138052       0.006
  -0.08430135  0.00762565  0.05138052       0.006
  -0.08430135  0.01016753  0.05138052       0.006
  -0.08430135  0.01270941  0.05138052       0.006
  -0.08430135  0.01525129  0.05138052       0.006
  -0.08430135  0.01779318  0.05138052       0.006
  -0.08430135  0.02033506  0.05138052       0.006
  -0.08430135  0.02287694  0.05138052       0.006
  -0.08430135  0.02541882  0.05138052       0.006
  -0.08430135  0.02796071  0.05138052       0.006
  -0.08430135  0.03050259  0.05138052       0.006
  -0.08430135  0.03304447  0.05138052       0.006
  -0.08430135  0.03558635  0.05138052       0.006
  -0.08430135  0.03812824  0.05138052       0.006
  -0.08430135  0.04067012  0.05138052       0.006
  -0.08430135  0.04321200  0.05138052       0.006
  -0.08430135  0.04575388  0.05138052       0.006
  -0.08430135  0.04829577  0.05138052       0.006
  -0.08430135  0.04829577  0.05138052       0.006
  -0.08515442  0.04829577  0.05001495       0.006
  -0.08600749  0.04829577  0.04864938       0.006
  -0.08686056  0.04829577  0.04728382       0.006
  -0.08771363  0.04829577  0.04591825       0.006
  -0.08856670  0.04829577  0.04455268       0.006
  -0.08941977  0.04829577  0.04318712       0.006
  -0.09027284  0.04829577  0.04182155       0.006
  -0.09112591  0.04829577  0.04045598       0.006
  -0.09197898  0.04829577  0.03909042       0.006
  -0.09283205  0.04829577  0.03772485       0.006
  -0.09368512  0.04829577  0.03635928       0.006
  -0.09453819  0.04829577  0.03499372       0.006
  -0.09539126  0.04829577  0.03362815       0.006
  -0.09624432  0.04829577  0.03226258       0.006
  -0.09709739  0.04829577  0.03089702       0.006
  -0.09795046  0.04829577  0.02953145       0.006
  -0.09880353  0.04829577  0.02816588       0.006
  -0.09965660  0.04829577  0.02680032       0.006
  -0.10050967  0.04829577  0.02543475       0.006
  -0.10050967  0.04829577  0.02543475       0.006
  -0.09967386  0.04829577  0.02271475       0.006
  -0.09883804  0.04829577  0.01999474       0.006
  -0.09800223  0.04829577  0.01727474       0.006
  -0.09716642  0.04829577  0.01455474       0.006
  -0.09633060  0.04829577  0.01183473       0.006
  -0.09549479  0.04829577  0.00911473       0.006
  -0.09465898  0.04829577  0.00639472       0.006
  -0.09382316  0.04829577  0.00367472       0.006
  -0.09298735  0.04829577  0.00095472       0.006
  -0.09215153  0.04829577 -0.00176529       0.006
  -0.09131572  0.04829577 -0.00448529       0.006
  -0.09047991  0.04829577 -0.00720530       0.006
  -0.08964409  0.04829577 -0.00992530       0.006
  -0.08880828  0.04829577 -0.01264530       0.006
  -0.08797246  0.04829577 -0.01536531       0.006
  -0.08713665  0.04829577 -0.01808531       0.006
  -0.08630084  0.04829577 -0.02080532       0.006
  -0.08546502  0.04829577 -0.02352532       0.006
  -0.08462921  0.04829577 -0.02624532       0.006
  -0.08462921  0.04829577 -0.02624532       0.006
  -0.08462921  0.04575388 -0.02624532       0.006
  -0.08462921  0.04321200 -0.02624532       0.006
  -0.08462921  0.04067012 -0.02624532       0.006
  -0.08462921  0.03812824 -0.02624532       0.006
  -0.08462921  0.03558635 -0.02624532       0.006
  -0.08462921  0.03304447 -0.02624532       0.006
  -0.08462921  0.03050259 -0.02624532       0.006
  -0.08462921  0.02796071 -0.02624532       0.006
  -0.08462921  0.02541882 -0.02624532       0.006
  -0.08462921  0.02287694 -0.02624532       0.006
  -0.08462921  0.02033506 -0.02624532       0.006
  -0.08462921  0.01779318 -0.02624532       0.006
  -0.08462921  0.01525129 -0.02624532       0.006
  -0.08462921  0.01270941 -0.02624532       0.006
  -0.08462921  0.01016753 -0.02624532       0.006
  -0.08462921  0.00762565 -0.02624532       0.006
  -0.08462921  0.00508376 -0.02624532       0.006
  -0.08462921  0.00254188 -0.02624532       0.006
  -0.08462921  0.00000000 -0.02624532       0.006
  -0.08462921  0.00000000 -0.02624532       0.006
  -0.08546502  0.00000000 -0.02352532       0.006
  -0.08630084  0.00000000 -0.02080532       0.006
  -0.08713665  0.00000000 -0.01808531       0.006
  -0.08797246  0.00000000 -0.01536531       0.006
  -0.08880828  0.00000000 -0.01264530       0.006
  -0.08964409  0.00000000 -0.00992530       0.006
  -0.09047991  0.00000000 -0.00720530       0.006
  -0.09131572  0.00000000 -0.00448529       0.006
  -0.09215153  0.00000000 -0.00176529       0.006
  -0.09298735  0.00000000  0.00095472       0.006
  -0.09382316  0.00000000  0.00367472       0.006
  -0.09465898  0.00000000  0.00639472       0.006
  -0.09549479  0.00000000  0.00911473       0.006
  -0.09633060  0.00000000  0.01183473       0.006
  -0.09716642  0.00000000  0.01455474       0.006
  -0.09800223  0.00000000  0.01727474       0.006
  -0.09883804  0.00000000  0.01999474       0.006
  -0.09967386  0.00000000  0.02271475       0.006
  -0.10050967  0.00000000  0.02543475       0.006
 
 k-points in reciprocal lattice and weights: k-points along high symmetry lines for h
   0.00000000  0.00000000  0.00000000       0.006
   0.00000000  0.00000000  0.02631579       0.006
   0.00000000  0.00000000  0.05263158       0.006
   0.00000000  0.00000000  0.07894737       0.006
   0.00000000  0.00000000  0.10526316       0.006
   0.00000000  0.00000000  0.13157895       0.006
   0.00000000  0.00000000  0.15789474       0.006
   0.00000000  0.00000000  0.18421053       0.006
   0.00000000  0.00000000  0.21052632       0.006
   0.00000000  0.00000000  0.23684211       0.006
   0.00000000  0.00000000  0.26315789       0.006
   0.00000000  0.00000000  0.28947368       0.006
   0.00000000  0.00000000  0.31578947       0.006
   0.00000000  0.00000000  0.34210526       0.006
   0.00000000  0.00000000  0.36842105       0.006
   0.00000000  0.00000000  0.39473684       0.006
   0.00000000  0.00000000  0.42105263       0.006
   0.00000000  0.00000000  0.44736842       0.006
   0.00000000  0.00000000  0.47368421       0.006
   0.00000000  0.00000000  0.50000000       0.006
   0.00000000  0.00000000  0.50000000       0.006
  -0.02130326  0.00000000  0.50710109       0.006
  -0.04260652  0.00000000  0.51420217       0.006
  -0.06390977  0.00000000  0.52130326       0.006
  -0.08521303  0.00000000  0.52840434       0.006
  -0.10651629  0.00000000  0.53550543       0.006
  -0.12781955  0.00000000  0.54260652       0.006
  -0.14912281  0.00000000  0.54970760       0.006
  -0.17042607  0.00000000  0.55680869       0.006
  -0.19172932  0.00000000  0.56390977       0.006
  -0.21303258  0.00000000  0.57101086       0.006
  -0.23433584  0.00000000  0.57811195       0.006
  -0.25563910  0.00000000  0.58521303       0.006
  -0.27694236  0.00000000  0.59231412       0.006
  -0.29824561  0.00000000  0.59941520       0.006
  -0.31954887  0.00000000  0.60651629       0.006
  -0.34085213  0.00000000  0.61361738       0.006
  -0.36215539  0.00000000  0.62071846       0.006
  -0.38345865  0.00000000  0.62781955       0.006
  -0.40476190  0.00000000  0.63492063       0.006
  -0.40476190  0.00000000  0.63492063       0.006
  -0.40977444  0.00000000  0.62781955       0.006
  -0.41478697  0.00000000  0.62071846       0.006
  -0.41979950  0.00000000  0.61361738       0.006
  -0.42481203  0.00000000  0.60651629       0.006
  -0.42982456  0.00000000  0.59941520       0.006
  -0.43483709  0.00000000  0.59231412       0.006
  -0.43984962  0.00000000  0.58521303       0.006
  -0.44486216  0.00000000  0.57811195       0.006
  -0.44987469  0.00000000  0.57101086       0.006
  -0.45488722  0.00000000  0.56390977       0.006
  -0.45989975  0.00000000  0.55680869       0.006
  -0.46491228  0.00000000  0.54970760       0.006
  -0.46992481  0.00000000  0.54260652       0.006
  -0.47493734  0.00000000  0.53550543       0.006
  -0.47994987  0.00000000  0.52840434       0.006
  -0.48496241  0.00000000  0.52130326       0.006
  -0.48997494  0.00000000  0.51420217       0.006
  -0.49498747  0.00000000  0.50710109       0.006
  -0.50000000  0.00000000  0.50000000       0.006
  -0.50000000  0.00000000  0.50000000       0.006
  -0.50000000  0.02631579  0.50000000       0.006
  -0.50000000  0.05263158  0.50000000       0.006
  -0.50000000  0.07894737  0.50000000       0.006
  -0.50000000  0.10526316  0.50000000       0.006
  -0.50000000  0.13157895  0.50000000       0.006
  -0.50000000  0.15789474  0.50000000       0.006
  -0.50000000  0.18421053  0.50000000       0.006
  -0.50000000  0.21052632  0.50000000       0.006
  -0.50000000  0.23684211  0.50000000       0.006
  -0.50000000  0.26315789  0.50000000       0.006
  -0.50000000  0.28947368  0.50000000       0.006
  -0.50000000  0.31578947  0.50000000       0.006
  -0.50000000  0.34210526  0.50000000       0.006
  -0.50000000  0.36842105  0.50000000       0.006
  -0.50000000  0.39473684  0.50000000       0.006
  -0.50000000  0.42105263  0.50000000       0.006
  -0.50000000  0.44736842  0.50000000       0.006
  -0.50000000  0.47368421  0.50000000       0.006
  -0.50000000  0.50000000  0.50000000       0.006
  -0.50000000  0.50000000  0.50000000       0.006
  -0.50501253  0.50000000  0.49289891       0.006
  -0.51002506  0.50000000  0.48579783       0.006
  -0.51503759  0.50000000  0.47869674       0.006
  -0.52005013  0.50000000  0.47159566       0.006
  -0.52506266  0.50000000  0.46449457       0.006
  -0.53007519  0.50000000  0.45739348       0.006
  -0.53508772  0.50000000  0.45029240       0.006
  -0.54010025  0.50000000  0.44319131       0.006
  -0.54511278  0.50000000  0.43609023       0.006
  -0.55012531  0.50000000  0.42898914       0.006
  -0.55513784  0.50000000  0.42188805       0.006
  -0.56015038  0.50000000  0.41478697       0.006
  -0.56516291  0.50000000  0.40768588       0.006
  -0.57017544  0.50000000  0.40058480       0.006
  -0.57518797  0.50000000  0.39348371       0.006
  -0.58020050  0.50000000  0.38638262       0.006
  -0.58521303  0.50000000  0.37928154       0.006
  -0.59022556  0.50000000  0.37218045       0.006
  -0.59523810  0.50000000  0.36507937       0.006
  -0.59523810  0.50000000  0.36507937       0.006
  -0.59022556  0.50000000  0.34586466       0.006
  -0.58521303  0.50000000  0.32664996       0.006
  -0.58020050  0.50000000  0.30743525       0.006
  -0.57518797  0.50000000  0.28822055       0.006
  -0.57017544  0.50000000  0.26900585       0.006
  -0.56516291  0.50000000  0.24979114       0.006
  -0.56015038  0.50000000  0.23057644       0.006
  -0.55513784  0.50000000  0.21136174       0.006
  -0.55012531  0.50000000  0.19214703       0.006
  -0.54511278  0.50000000  0.17293233       0.006
  -0.54010025  0.50000000  0.15371763       0.006
  -0.53508772  0.50000000  0.13450292       0.006
  -0.53007519  0.50000000  0.11528822       0.006
  -0.52506266  0.50000000  0.09607352       0.006
  -0.52005013  0.50000000  0.07685881       0.006
  -0.51503759  0.50000000  0.05764411       0.006
  -0.51002506  0.50000000  0.03842941       0.006
  -0.50501253  0.50000000  0.01921470       0.006
  -0.50000000  0.50000000  0.00000000       0.006
  -0.50000000  0.50000000  0.00000000       0.006
  -0.50000000  0.47368421  0.00000000       0.006
  -0.50000000  0.44736842  0.00000000       0.006
  -0.50000000  0.42105263  0.00000000       0.006
  -0.50000000  0.39473684  0.00000000       0.006
  -0.50000000  0.36842105  0.00000000       0.006
  -0.50000000  0.34210526  0.00000000       0.006
  -0.50000000  0.31578947  0.00000000       0.006
  -0.50000000  0.28947368  0.00000000       0.006
  -0.50000000  0.26315789  0.00000000       0.006
  -0.50000000  0.23684211  0.00000000       0.006
  -0.50000000  0.21052632  0.00000000       0.006
  -0.50000000  0.18421053  0.00000000       0.006
  -0.50000000  0.15789474  0.00000000       0.006
  -0.50000000  0.13157895  0.00000000       0.006
  -0.50000000  0.10526316  0.00000000       0.006
  -0.50000000  0.07894737  0.00000000       0.006
  -0.50000000  0.05263158  0.00000000       0.006
  -0.50000000  0.02631579  0.00000000       0.006
  -0.50000000  0.00000000  0.00000000       0.006
  -0.50000000  0.00000000  0.00000000       0.006
  -0.50501253  0.00000000  0.01921470       0.006
  -0.51002506  0.00000000  0.03842941       0.006
  -0.51503759  0.00000000  0.05764411       0.006
  -0.52005013  0.00000000  0.07685881       0.006
  -0.52506266  0.00000000  0.09607352       0.006
  -0.53007519  0.00000000  0.11528822       0.006
  -0.53508772  0.00000000  0.13450292       0.006
  -0.54010025  0.00000000  0.15371763       0.006
  -0.54511278  0.00000000  0.17293233       0.006
  -0.55012531  0.00000000  0.19214703       0.006
  -0.55513784  0.00000000  0.21136174       0.006
  -0.56015038  0.00000000  0.23057644       0.006
  -0.56516291  0.00000000  0.24979114       0.006
  -0.57017544  0.00000000  0.26900585       0.006
  -0.57518797  0.00000000  0.28822055       0.006
  -0.58020050  0.00000000  0.30743525       0.006
  -0.58521303  0.00000000  0.32664996       0.006
  -0.59022556  0.00000000  0.34586466       0.006
  -0.59523810  0.00000000  0.36507937       0.006
 
 position of ions in fractional coordinates (direct lattice) 
   0.50000000  0.17325791  0.24850000
   0.00000000  0.32674209  0.24850000
   0.00000000  0.67325791  0.24850000
   0.50000000  0.82674209  0.24850000
   0.05551804  0.00000000  0.41955926
   0.55551804  0.50000000  0.41955926
   0.94448196  0.00000000  0.07744074
   0.44448196  0.50000000  0.07744074
   0.74518056  0.00000000  0.49114478
   0.24518056  0.50000000  0.49114478
   0.24928871  0.16595337  0.49848800
   0.24928871  0.83404663  0.49848800
   0.74928871  0.66595337  0.49848800
   0.74928871  0.33404663  0.49848800
   0.25481944  0.00000000  0.00585522
   0.75481944  0.50000000  0.00585522
   0.75071129  0.16595337  0.99851200
   0.75071129  0.83404663  0.99851200
   0.25071129  0.66595337  0.99851200
   0.25071129  0.33404663  0.99851200
 
 position of ions in cartesian coordinates  (Angst):
   2.46089759  1.79371733  1.59023307
  -0.49703956  3.38271983  1.60272605
  -0.49703956  6.97015449  1.60272605
   2.46089759  8.55915699  1.59023307
  -0.51074759  0.00000000  2.70460297
   2.44718956  5.17643716  2.69210999
   5.43254276  0.00000000  0.47586317
   2.47460561  5.17643716  0.48835615
   3.42602677  0.00000000  3.14906918
   0.46808962  5.17643716  3.16156217
   0.47770531  1.71809437  3.20882037
   0.47770531  8.63477995  3.20882037
   3.43564246  6.89453153  3.19632739
   3.43564246  3.45834279  3.19632739
   1.49576840  0.00000000  0.03139696
   4.45370555  5.17643716  0.01890397
   2.44393066  1.71809437  6.42124760
   2.44393066  8.63477995  6.42124760
  -0.51400649  6.89453153  6.43374058
  -0.51400649  3.45834279  6.43374058
 
 Euler angles ALPHA=     0.0000000  BETA=     0.0000000

 transformation matrix from SAXIS to cartesian coordinates
 ---------------------------------------------------------
     1.0000000 m_x     0.0000000 m_y     0.0000000 m_z
     0.0000000 m_x     1.0000000 m_y     0.0000000 m_z
     0.0000000 m_x     0.0000000 m_y     1.0000000 m_z

 transformation matrix from cartesian coordinates to SAXIS
 ---------------------------------------------------------
     1.0000000 m_x     0.0000000 m_y     0.0000000 m_z
     0.0000000 m_x     1.0000000 m_y     0.0000000 m_z
     0.0000000 m_x     0.0000000 m_y     1.0000000 m_z




--------------------------------------------------------------------------------------------------------


 k-point   1 :   0.0000 0.0000 0.0000  plane waves:   11726
 k-point   2 :   0.0000 0.0000 0.0263  plane waves:   11718
 k-point   3 :   0.0000 0.0000 0.0526  plane waves:   11722
 k-point   4 :   0.0000 0.0000 0.0789  plane waves:   11694
 k-point   5 :   0.0000 0.0000 0.1053  plane waves:   11680
 k-point   6 :   0.0000 0.0000 0.1316  plane waves:   11692
 k-point   7 :   0.0000 0.0000 0.1579  plane waves:   11704
 k-point   8 :   0.0000 0.0000 0.1842  plane waves:   11704
 k-point   9 :   0.0000 0.0000 0.2105  plane waves:   11714
 k-point  10 :   0.0000 0.0000 0.2368  plane waves:   11714
 k-point  11 :   0.0000 0.0000 0.2632  plane waves:   11708
 k-point  12 :   0.0000 0.0000 0.2895  plane waves:   11674
 k-point  13 :   0.0000 0.0000 0.3158  plane waves:   11672
 k-point  14 :   0.0000 0.0000 0.3421  plane waves:   11680
 k-point  15 :   0.0000 0.0000 0.3684  plane waves:   11674
 k-point  16 :   0.0000 0.0000 0.3947  plane waves:   11670
 k-point  17 :   0.0000 0.0000 0.4211  plane waves:   11678
 k-point  18 :   0.0000 0.0000 0.4474  plane waves:   11694
 k-point  19 :   0.0000 0.0000 0.4737  plane waves:   11680
 k-point  20 :   0.0000 0.0000 0.5000  plane waves:   11700
 k-point  21 :   0.0000 0.0000 0.5000  plane waves:   11700
 k-point  22 :  -0.0213 0.0000 0.5071  plane waves:   11696
 k-point  23 :  -0.0426 0.0000 0.5142  plane waves:   11680
 k-point  24 :  -0.0639 0.0000 0.5213  plane waves:   11678
 k-point  25 :  -0.0852 0.0000 0.5284  plane waves:   11666
 k-point  26 :  -0.1065 0.0000 0.5355  plane waves:   11678
 k-point  27 :  -0.1278 0.0000 0.5426  plane waves:   11690
 k-point  28 :  -0.1491 0.0000 0.5497  plane waves:   11712
 k-point  29 :  -0.1704 0.0000 0.5568  plane waves:   11720
 k-point  30 :  -0.1917 0.0000 0.5639  plane waves:   11700
 k-point  31 :  -0.2130 0.0000 0.5710  plane waves:   11704
 k-point  32 :  -0.2343 0.0000 0.5781  plane waves:   11708
 k-point  33 :  -0.2556 0.0000 0.5852  plane waves:   11710
 k-point  34 :  -0.2769 0.0000 0.5923  plane waves:   11718
 k-point  35 :  -0.2982 0.0000 0.5994  plane waves:   11732
 k-point  36 :  -0.3195 0.0000 0.6065  plane waves:   11748
 k-point  37 :  -0.3409 0.0000 0.6136  plane waves:   11750
 k-point  38 :  -0.3622 0.0000 0.6207  plane waves:   11758
 k-point  39 :  -0.3835 0.0000 0.6278  plane waves:   11776
 k-point  40 :  -0.4048 0.0000 0.6349  plane waves:   11784
 k-point  41 :  -0.4048 0.0000 0.6349  plane waves:   11784
 k-point  42 :  -0.4098 0.0000 0.6278  plane waves:   11792
 k-point  43 :  -0.4148 0.0000 0.6207  plane waves:   11784
 k-point  44 :  -0.4198 0.0000 0.6136  plane waves:   11780
 k-point  45 :  -0.4248 0.0000 0.6065  plane waves:   11782
 k-point  46 :  -0.4298 0.0000 0.5994  plane waves:   11790
 k-point  47 :  -0.4348 0.0000 0.5923  plane waves:   11802
 k-point  48 :  -0.4398 0.0000 0.5852  plane waves:   11802
 k-point  49 :  -0.4449 0.0000 0.5781  plane waves:   11786
 k-point  50 :  -0.4499 0.0000 0.5710  plane waves:   11778
 k-point  51 :  -0.4549 0.0000 0.5639  plane waves:   11766
 k-point  52 :  -0.4599 0.0000 0.5568  plane waves:   11776
 k-point  53 :  -0.4649 0.0000 0.5497  plane waves:   11756
 k-point  54 :  -0.4699 0.0000 0.5426  plane waves:   11758
 k-point  55 :  -0.4749 0.0000 0.5355  plane waves:   11754
 k-point  56 :  -0.4799 0.0000 0.5284  plane waves:   11748
 k-point  57 :  -0.4850 0.0000 0.5213  plane waves:   11764
 k-point  58 :  -0.4900 0.0000 0.5142  plane waves:   11768
 k-point  59 :  -0.4950 0.0000 0.5071  plane waves:   11768
 k-point  60 :  -0.5000 0.0000 0.5000  plane waves:   11768
 k-point  61 :  -0.5000 0.0000 0.5000  plane waves:   11768
 k-point  62 :  -0.5000 0.0263 0.5000  plane waves:   11768
 k-point  63 :  -0.5000 0.0526 0.5000  plane waves:   11744
 k-point  64 :  -0.5000 0.0789 0.5000  plane waves:   11752
 k-point  65 :  -0.5000 0.1053 0.5000  plane waves:   11744
 k-point  66 :  -0.5000 0.1316 0.5000  plane waves:   11756
 k-point  67 :  -0.5000 0.1579 0.5000  plane waves:   11760
 k-point  68 :  -0.5000 0.1842 0.5000  plane waves:   11756
 k-point  69 :  -0.5000 0.2105 0.5000  plane waves:   11780
 k-point  70 :  -0.5000 0.2368 0.5000  plane waves:   11780
 k-point  71 :  -0.5000 0.2632 0.5000  plane waves:   11780
 k-point  72 :  -0.5000 0.2895 0.5000  plane waves:   11764
 k-point  73 :  -0.5000 0.3158 0.5000  plane waves:   11764
 k-point  74 :  -0.5000 0.3421 0.5000  plane waves:   11748
 k-point  75 :  -0.5000 0.3684 0.5000  plane waves:   11760
 k-point  76 :  -0.5000 0.3947 0.5000  plane waves:   11784
 k-point  77 :  -0.5000 0.4211 0.5000  plane waves:   11788
 k-point  78 :  -0.5000 0.4474 0.5000  plane waves:   11800
 k-point  79 :  -0.5000 0.4737 0.5000  plane waves:   11804
 k-point  80 :  -0.5000 0.5000 0.5000  plane waves:   11800
 k-point  81 :  -0.5000 0.5000 0.5000  plane waves:   11800
 k-point  82 :  -0.5050 0.5000 0.4929  plane waves:   11792
 k-point  83 :  -0.5100 0.5000 0.4858  plane waves:   11788
 k-point  84 :  -0.5150 0.5000 0.4787  plane waves:   11780
 k-point  85 :  -0.5201 0.5000 0.4716  plane waves:   11784
 k-point  86 :  -0.5251 0.5000 0.4645  plane waves:   11796
 k-point  87 :  -0.5301 0.5000 0.4574  plane waves:   11792
 k-point  88 :  -0.5351 0.5000 0.4503  plane waves:   11784
 k-point  89 :  -0.5401 0.5000 0.4432  plane waves:   11776
 k-point  90 :  -0.5451 0.5000 0.4361  plane waves:   11768
 k-point  91 :  -0.5501 0.5000 0.4290  plane waves:   11768
 k-point  92 :  -0.5551 0.5000 0.4219  plane waves:   11760
 k-point  93 :  -0.5602 0.5000 0.4148  plane waves:   11768
 k-point  94 :  -0.5652 0.5000 0.4077  plane waves:   11760
 k-point  95 :  -0.5702 0.5000 0.4006  plane waves:   11752
 k-point  96 :  -0.5752 0.5000 0.3935  plane waves:   11744
 k-point  97 :  -0.5802 0.5000 0.3864  plane waves:   11752
 k-point  98 :  -0.5852 0.5000 0.3793  plane waves:   11756
 k-point  99 :  -0.5902 0.5000 0.3722  plane waves:   11756
 k-point 100 :  -0.5952 0.5000 0.3651  plane waves:   11744
 k-point 101 :  -0.5952 0.5000 0.3651  plane waves:   11744
 k-point 102 :  -0.5902 0.5000 0.3459  plane waves:   11740
 k-point 103 :  -0.5852 0.5000 0.3266  plane waves:   11732
 k-point 104 :  -0.5802 0.5000 0.3074  plane waves:   11740
 k-point 105 :  -0.5752 0.5000 0.2882  plane waves:   11744
 k-point 106 :  -0.5702 0.5000 0.2690  plane waves:   11732
 k-point 107 :  -0.5652 0.5000 0.2498  plane waves:   11736
 k-point 108 :  -0.5602 0.5000 0.2306  plane waves:   11740
 k-point 109 :  -0.5551 0.5000 0.2114  plane waves:   11716
 k-point 110 :  -0.5501 0.5000 0.1921  plane waves:   11744
 k-point 111 :  -0.5451 0.5000 0.1729  plane waves:   11748
 k-point 112 :  -0.5401 0.5000 0.1537  plane waves:   11768
 k-point 113 :  -0.5351 0.5000 0.1345  plane waves:   11760
 k-point 114 :  -0.5301 0.5000 0.1153  plane waves:   11752
 k-point 115 :  -0.5251 0.5000 0.0961  plane waves:   11760
 k-point 116 :  -0.5201 0.5000 0.0769  plane waves:   11760
 k-point 117 :  -0.5150 0.5000 0.0576  plane waves:   11752
 k-point 118 :  -0.5100 0.5000 0.0384  plane waves:   11768
 k-point 119 :  -0.5050 0.5000 0.0192  plane waves:   11752
 k-point 120 :  -0.5000 0.5000 0.0000  plane waves:   11768
 k-point 121 :  -0.5000 0.5000 0.0000  plane waves:   11768
 k-point 122 :  -0.5000 0.4737 0.0000  plane waves:   11760
 k-point 123 :  -0.5000 0.4474 0.0000  plane waves:   11764
 k-point 124 :  -0.5000 0.4211 0.0000  plane waves:   11772
 k-point 125 :  -0.5000 0.3947 0.0000  plane waves:   11776
 k-point 126 :  -0.5000 0.3684 0.0000  plane waves:   11768
 k-point 127 :  -0.5000 0.3421 0.0000  plane waves:   11764
 k-point 128 :  -0.5000 0.3158 0.0000  plane waves:   11752
 k-point 129 :  -0.5000 0.2895 0.0000  plane waves:   11760
 k-point 130 :  -0.5000 0.2632 0.0000  plane waves:   11748
 k-point 131 :  -0.5000 0.2368 0.0000  plane waves:   11736
 k-point 132 :  -0.5000 0.2105 0.0000  plane waves:   11720
 k-point 133 :  -0.5000 0.1842 0.0000  plane waves:   11712
 k-point 134 :  -0.5000 0.1579 0.0000  plane waves:   11704
 k-point 135 :  -0.5000 0.1316 0.0000  plane waves:   11692
 k-point 136 :  -0.5000 0.1053 0.0000  plane waves:   11692
 k-point 137 :  -0.5000 0.0789 0.0000  plane waves:   11692
 k-point 138 :  -0.5000 0.0526 0.0000  plane waves:   11684
 k-point 139 :  -0.5000 0.0263 0.0000  plane waves:   11696
 k-point 140 :  -0.5000 0.0000 0.0000  plane waves:   11704
 k-point 141 :  -0.5000 0.0000 0.0000  plane waves:   11704
 k-point 142 :  -0.5050 0.0000 0.0192  plane waves:   11700
 k-point 143 :  -0.5100 0.0000 0.0384  plane waves:   11692
 k-point 144 :  -0.5150 0.0000 0.0576  plane waves:   11702
 k-point 145 :  -0.5201 0.0000 0.0769  plane waves:   11702
 k-point 146 :  -0.5251 0.0000 0.0961  plane waves:   11714
 k-point 147 :  -0.5301 0.0000 0.1153  plane waves:   11726
 k-point 148 :  -0.5351 0.0000 0.1345  plane waves:   11728
 k-point 149 :  -0.5401 0.0000 0.1537  plane waves:   11730
 k-point 150 :  -0.5451 0.0000 0.1729  plane waves:   11726
 k-point 151 :  -0.5501 0.0000 0.1921  plane waves:   11732
 k-point 152 :  -0.5551 0.0000 0.2114  plane waves:   11736
 k-point 153 :  -0.5602 0.0000 0.2306  plane waves:   11742
 k-point 154 :  -0.5652 0.0000 0.2498  plane waves:   11732
 k-point 155 :  -0.5702 0.0000 0.2690  plane waves:   11736
 k-point 156 :  -0.5752 0.0000 0.2882  plane waves:   11744
 k-point 157 :  -0.5802 0.0000 0.3074  plane waves:   11752
 k-point 158 :  -0.5852 0.0000 0.3266  plane waves:   11760
 k-point 159 :  -0.5902 0.0000 0.3459  plane waves:   11784
 k-point 160 :  -0.5952 0.0000 0.3651  plane waves:   11784

 maximum and minimum number of plane-waves per node :     11804    11666

 maximum number of plane-waves:     11804
 maximum index in each direction: 
   IXMAX=    9   IYMAX=   15   IZMAX=   10
   IXMIN=   -9   IYMIN=  -16   IZMIN=  -10


 serial   3D FFT for wavefunctions
 parallel 3D FFT for charge:
    minimum data exchange during FFTs selected (reduces bandwidth)


 total amount of memory used by VASP MPI-rank0  1079448. kBytes
=======================================================================

   base      :      30000. kBytes
   nonl-proj :     409973. kBytes
   fftplans  :       7276. kBytes
   grid      :      37158. kBytes
   one-center:       1244. kBytes
   wavefun   :     593797. kBytes
 
     INWAV:  cpu time      0.0001: real time      0.0001
 initial charge density was supplied:
 number of electron     123.9999982 magnetization       0.0000000      0.0016067     -0.0000000
 keeping initial charge density in first step


[...]
    -0.0002721     0.0000000    -0.0003005
    -0.0003060    -0.0003005     0.0000000
 l=   2
     0.0000000     0.0000000     0.0000000     0.0000000     0.0000000
     0.0000000     0.0000000     0.0000000     0.0000000     0.0000000
     0.0000000     0.0000000     0.0000000     0.0000000     0.0000000
     0.0000000     0.0000000     0.0000000     0.0000000     0.0000000
     0.0000000     0.0000000     0.0000000     0.0000000     0.0000000
 l=   3
     0.0000000     0.0000000     0.0000000     0.0000000     0.0000000     0.0000000     0.0000000
     0.0000000     0.0000000     0.0000000     0.0000000     0.0000000     0.0000000     0.0000000
     0.0000000     0.0000000     0.0000000     0.0000000     0.0000000     0.0000000     0.0000000
     0.0000000     0.0000000     0.0000000     0.0000000     0.0000000     0.0000000     0.0000000
     0.0000000     0.0000000     0.0000000     0.0000000     0.0000000     0.0000000     0.0000000
     0.0000000     0.0000000     0.0000000     0.0000000     0.0000000     0.0000000     0.0000000
     0.0000000     0.0000000     0.0000000     0.0000000     0.0000000     0.0000000     0.0000000

 Ion:   10  E_soc:     -0.0017582
 l=   1
     0.0000000    -0.0002725    -0.0003060
    -0.0002725     0.0000000    -0.0003005
    -0.0003060    -0.0003005     0.0000000
 l=   2
     0.0000000     0.0000000     0.0000000     0.0000000     0.0000000
     0.0000000     0.0000000     0.0000000     0.0000000     0.0000000
     0.0000000     0.0000000     0.0000000     0.0000000     0.0000000
     0.0000000     0.0000000     0.0000000     0.0000000     0.0000000
     0.0000000     0.0000000     0.0000000     0.0000000     0.0000000
 l=   3
     0.0000000     0.0000000     0.0000000     0.0000000     0.0000000     0.0000000     0.0000000
     0.0000000     0.0000000     0.0000000     0.0000000     0.0000000     0.0000000     0.0000000
     0.0000000     0.0000000     0.0000000     0.0000000     0.0000000     0.0000000     0.0000000
     0.0000000     0.0000000     0.0000000     0.0000000     0.0000000     0.0000000     0.0000000
     0.0000000     0.0000000     0.0000000     0.0000000     0.0000000     0.0000000     0.0000000
     0.0000000     0.0000000     0.0000000     0.0000000     0.0000000     0.0000000     0.0000000
     0.0000000     0.0000000     0.0000000     0.0000000     0.0000000     0.0000000     0.0000000

 Ion:   11  E_soc:     -0.0017610
 l=   1
     0.0000000    -0.0002898    -0.0003113
    -0.0002898     0.0000000    -0.0002794
    -0.0003113    -0.0002794     0.0000000
 l=   2
     0.0000000     0.0000000     0.0000000     0.0000000     0.0000000
     0.0000000     0.0000000     0.0000000     0.0000000     0.0000000
     0.0000000     0.0000000     0.0000000     0.0000000     0.0000000
     0.0000000     0.0000000     0.0000000     0.0000000     0.0000000
     0.0000000     0.0000000     0.0000000     0.0000000     0.0000000
 l=   3
     0.0000000     0.0000000     0.0000000     0.0000000     0.0000000     0.0000000     0.0000000
     0.0000000     0.0000000     0.0000000     0.0000000     0.0000000     0.0000000     0.0000000
     0.0000000     0.0000000     0.0000000     0.0000000     0.0000000     0.0000000     0.0000000
     0.0000000     0.0000000     0.0000000     0.0000000     0.0000000     0.0000000     0.0000000
     0.0000000     0.0000000     0.0000000     0.0000000     0.0000000     0.0000000     0.0000000
     0.0000000     0.0000000     0.0000000     0.0000000     0.0000000     0.0000000     0.0000000
     0.0000000     0.0000000     0.0000000     0.0000000     0.0000000     0.0000000     0.0000000

 Ion:   12  E_soc:     -0.0017610
 l=   1
     0.0000000    -0.0002898    -0.0003113
    -0.0002898     0.0000000    -0.0002794
    -0.0003113    -0.0002794     0.0000000
 l=   2
     0.0000000     0.0000000     0.0000000     0.0000000     0.0000000
     0.0000000     0.0000000     0.0000000     0.0000000     0.0000000
     0.0000000     0.0000000     0.0000000     0.0000000     0.0000000
     0.0000000     0.0000000     0.0000000     0.0000000     0.0000000
     0.0000000     0.0000000     0.0000000     0.0000000     0.0000000
 l=   3
     0.0000000     0.0000000     0.0000000     0.0000000     0.0000000     0.0000000     0.0000000
     0.0000000     0.0000000     0.0000000     0.0000000     0.0000000     0.0000000     0.0000000
     0.0000000     0.0000000     0.0000000     0.0000000     0.0000000     0.0000000     0.0000000
     0.0000000     0.0000000     0.0000000     0.0000000     0.0000000     0.0000000     0.0000000
     0.0000000     0.0000000     0.0000000     0.0000000     0.0000000     0.0000000     0.0000000
     0.0000000     0.0000000     0.0000000     0.0000000     0.0000000     0.0000000     0.0000000
     0.0000000     0.0000000     0.0000000     0.0000000     0.0000000     0.0000000     0.0000000

 Ion:   13  E_soc:     -0.0017620
 l=   1
     0.0000000    -0.0002903    -0.0003112
    -0.0002903     0.0000000    -0.0002794
    -0.0003112    -0.0002794     0.0000000
 l=   2
     0.0000000     0.0000000     0.0000000     0.0000000     0.0000000
     0.0000000     0.0000000     0.0000000     0.0000000     0.0000000
     0.0000000     0.0000000     0.0000000     0.0000000     0.0000000
     0.0000000     0.0000000     0.0000000     0.0000000     0.0000000
     0.0000000     0.0000000     0.0000000     0.0000000     0.0000000
 l=   3
     0.0000000     0.0000000     0.0000000     0.0000000     0.0000000     0.0000000     0.0000000
     0.0000000     0.0000000     0.0000000     0.0000000     0.0000000     0.0000000     0.0000000
     0.0000000     0.0000000     0.0000000     0.0000000     0.0000000     0.0000000     0.0000000
     0.0000000     0.0000000     0.0000000     0.0000000     0.0000000     0.0000000     0.0000000
     0.0000000     0.0000000     0.0000000     0.0000000     0.0000000     0.0000000     0.0000000
     0.0000000     0.0000000     0.0000000     0.0000000     0.0000000     0.0000000     0.0000000
     0.0000000     0.0000000     0.0000000     0.0000000     0.0000000     0.0000000     0.0000000

 Ion:   14  E_soc:     -0.0017620
 l=   1
     0.0000000    -0.0002903    -0.0003112
    -0.0002903     0.0000000    -0.0002794
    -0.0003112    -0.0002794     0.0000000
 l=   2
     0.0000000     0.0000000     0.0000000     0.0000000     0.0000000
     0.0000000     0.0000000     0.0000000     0.0000000     0.0000000
     0.0000000     0.0000000     0.0000000     0.0000000     0.0000000
     0.0000000     0.0000000     0.0000000     0.0000000     0.0000000
     0.0000000     0.0000000     0.0000000     0.0000000     0.0000000
 l=   3
     0.0000000     0.0000000     0.0000000     0.0000000     0.0000000     0.0000000     0.0000000
     0.0000000     0.0000000     0.0000000     0.0000000     0.0000000     0.0000000     0.0000000
     0.0000000     0.0000000     0.0000000     0.0000000     0.0000000     0.0000000     0.0000000
     0.0000000     0.0000000     0.0000000     0.0000000     0.0000000     0.0000000     0.0000000
     0.0000000     0.0000000     0.0000000     0.0000000     0.0000000     0.0000000     0.0000000
     0.0000000     0.0000000     0.0000000     0.0000000     0.0000000     0.0000000     0.0000000
     0.0000000     0.0000000     0.0000000     0.0000000     0.0000000     0.0000000     0.0000000

 Ion:   15  E_soc:     -0.0017582
 l=   1
     0.0000000    -0.0002725    -0.0003060
    -0.0002725     0.0000000    -0.0003005
    -0.0003060    -0.0003005     0.0000000
 l=   2
     0.0000000     0.0000000     0.0000000     0.0000000     0.0000000
     0.0000000     0.0000000     0.0000000     0.0000000     0.0000000
     0.0000000     0.0000000     0.0000000     0.0000000     0.0000000
     0.0000000     0.0000000     0.0000000     0.0000000     0.0000000
     0.0000000     0.0000000     0.0000000     0.0000000     0.0000000
 l=   3
     0.0000000     0.0000000     0.0000000     0.0000000     0.0000000     0.0000000     0.0000000
     0.0000000     0.0000000     0.0000000     0.0000000     0.0000000     0.0000000     0.0000000
     0.0000000     0.0000000     0.0000000     0.0000000     0.0000000     0.0000000     0.0000000
     0.0000000     0.0000000     0.0000000     0.0000000     0.0000000     0.0000000     0.0000000
     0.0000000     0.0000000     0.0000000     0.0000000     0.0000000     0.0000000     0.0000000
     0.0000000     0.0000000     0.0000000     0.0000000     0.0000000     0.0000000     0.0000000
     0.0000000     0.0000000     0.0000000     0.0000000     0.0000000     0.0000000     0.0000000

 Ion:   16  E_soc:     -0.0017573
 l=   1
     0.0000000    -0.0002721    -0.0003060
    -0.0002721     0.0000000    -0.0003005
    -0.0003060    -0.0003005     0.0000000
 l=   2
     0.0000000     0.0000000     0.0000000     0.0000000     0.0000000
     0.0000000     0.0000000     0.0000000     0.0000000     0.0000000
     0.0000000     0.0000000     0.0000000     0.0000000     0.0000000
     0.0000000     0.0000000     0.0000000     0.0000000     0.0000000
     0.0000000     0.0000000     0.0000000     0.0000000     0.0000000
 l=   3
     0.0000000     0.0000000     0.0000000     0.0000000     0.0000000     0.0000000     0.0000000
     0.0000000     0.0000000     0.0000000     0.0000000     0.0000000     0.0000000     0.0000000
     0.0000000     0.0000000     0.0000000     0.0000000     0.0000000     0.0000000     0.0000000
     0.0000000     0.0000000     0.0000000     0.0000000     0.0000000     0.0000000     0.0000000
     0.0000000     0.0000000     0.0000000     0.0000000     0.0000000     0.0000000     0.0000000
     0.0000000     0.0000000     0.0000000     0.0000000     0.0000000     0.0000000     0.0000000
     0.0000000     0.0000000     0.0000000     0.0000000     0.0000000     0.0000000     0.0000000

 Ion:   17  E_soc:     -0.0017620
 l=   1
     0.0000000    -0.0002903    -0.0003112
    -0.0002903     0.0000000    -0.0002794
    -0.0003112    -0.0002794     0.0000000
 l=   2
     0.0000000     0.0000000     0.0000000     0.0000000     0.0000000
     0.0000000     0.0000000     0.0000000     0.0000000     0.0000000
     0.0000000     0.0000000     0.0000000     0.0000000     0.0000000
     0.0000000     0.0000000     0.0000000     0.0000000     0.0000000
     0.0000000     0.0000000     0.0000000     0.0000000     0.0000000
 l=   3
     0.0000000     0.0000000     0.0000000     0.0000000     0.0000000     0.0000000     0.0000000
     0.0000000     0.0000000     0.0000000     0.0000000     0.0000000     0.0000000     0.0000000
     0.0000000     0.0000000     0.0000000     0.0000000     0.0000000     0.0000000     0.0000000
     0.0000000     0.0000000     0.0000000     0.0000000     0.0000000     0.0000000     0.0000000
     0.0000000     0.0000000     0.0000000     0.0000000     0.0000000     0.0000000     0.0000000
     0.0000000     0.0000000     0.0000000     0.0000000     0.0000000     0.0000000     0.0000000
     0.0000000     0.0000000     0.0000000     0.0000000     0.0000000     0.0000000     0.0000000

 Ion:   18  E_soc:     -0.0017620
 l=   1
     0.0000000    -0.0002903    -0.0003112
    -0.0002903     0.0000000    -0.0002794
    -0.0003112    -0.0002794     0.0000000
 l=   2
     0.0000000     0.0000000     0.0000000     0.0000000     0.0000000
     0.0000000     0.0000000     0.0000000     0.0000000     0.0000000
     0.0000000     0.0000000     0.0000000     0.0000000     0.0000000
     0.0000000     0.0000000     0.0000000     0.0000000     0.0000000
     0.0000000     0.0000000     0.0000000     0.0000000     0.0000000
 l=   3
     0.0000000     0.0000000     0.0000000     0.0000000     0.0000000     0.0000000     0.0000000
     0.0000000     0.0000000     0.0000000     0.0000000     0.0000000     0.0000000     0.0000000
     0.0000000     0.0000000     0.0000000     0.0000000     0.0000000     0.0000000     0.0000000
     0.0000000     0.0000000     0.0000000     0.0000000     0.0000000     0.0000000     0.0000000
     0.0000000     0.0000000     0.0000000     0.0000000     0.0000000     0.0000000     0.0000000
     0.0000000     0.0000000     0.0000000     0.0000000     0.0000000     0.0000000     0.0000000
     0.0000000     0.0000000     0.0000000     0.0000000     0.0000000     0.0000000     0.0000000

 Ion:   19  E_soc:     -0.0017610
 l=   1
     0.0000000    -0.0002898    -0.0003113
    -0.0002898     0.0000000    -0.0002794
    -0.0003113    -0.0002794     0.0000000
 l=   2
     0.0000000     0.0000000     0.0000000     0.0000000     0.0000000
     0.0000000     0.0000000     0.0000000     0.0000000     0.0000000
     0.0000000     0.0000000     0.0000000     0.0000000     0.0000000
     0.0000000     0.0000000     0.0000000     0.0000000     0.0000000
     0.0000000     0.0000000     0.0000000     0.0000000     0.0000000
 l=   3
     0.0000000     0.0000000     0.0000000     0.0000000     0.0000000     0.0000000     0.0000000
     0.0000000     0.0000000     0.0000000     0.0000000     0.0000000     0.0000000     0.0000000
     0.0000000     0.0000000     0.0000000     0.0000000     0.0000000     0.0000000     0.0000000
     0.0000000     0.0000000     0.0000000     0.0000000     0.0000000     0.0000000     0.0000000
     0.0000000     0.0000000     0.0000000     0.0000000     0.0000000     0.0000000     0.0000000
     0.0000000     0.0000000     0.0000000     0.0000000     0.0000000     0.0000000     0.0000000
     0.0000000     0.0000000     0.0000000     0.0000000     0.0000000     0.0000000     0.0000000

 Ion:   20  E_soc:     -0.0017610
 l=   1
     0.0000000    -0.0002898    -0.0003113
    -0.0002898     0.0000000    -0.0002794
    -0.0003113    -0.0002794     0.0000000
 l=   2
     0.0000000     0.0000000     0.0000000     0.0000000     0.0000000
     0.0000000     0.0000000     0.0000000     0.0000000     0.0000000
     0.0000000     0.0000000     0.0000000     0.0000000     0.0000000
     0.0000000     0.0000000     0.0000000     0.0000000     0.0000000
     0.0000000     0.0000000     0.0000000     0.0000000     0.0000000
 l=   3
     0.0000000     0.0000000     0.0000000     0.0000000     0.0000000     0.0000000     0.0000000
     0.0000000     0.0000000     0.0000000     0.0000000     0.0000000     0.0000000     0.0000000
     0.0000000     0.0000000     0.0000000     0.0000000     0.0000000     0.0000000     0.0000000
     0.0000000     0.0000000     0.0000000     0.0000000     0.0000000     0.0000000     0.0000000
     0.0000000     0.0000000     0.0000000     0.0000000     0.0000000     0.0000000     0.0000000
     0.0000000     0.0000000     0.0000000     0.0000000     0.0000000     0.0000000     0.0000000
     0.0000000     0.0000000     0.0000000     0.0000000     0.0000000     0.0000000     0.0000000



 total charge

# of ion       s       p       d       tot
------------------------------------------
    1        0.304   0.337   6.039   6.679
    2        0.304   0.337   6.039   6.679
    3        0.304   0.337   6.039   6.679
    4        0.304   0.337   6.039   6.679
    5        0.995   1.433   0.000   2.428
    6        0.995   1.433   0.000   2.428
    7        0.995   1.433   0.000   2.428
    8        0.995   1.433   0.000   2.428
    9        1.363   2.381   0.000   3.744
   10        1.363   2.381   0.000   3.744
   11        1.357   2.359   0.000   3.715
   12        1.357   2.359   0.000   3.715
   13        1.357   2.359   0.000   3.715
   14        1.357   2.359   0.000   3.715
   15        1.363   2.381   0.000   3.744
   16        1.363   2.381   0.000   3.744
   17        1.357   2.359   0.000   3.715
   18        1.357   2.359   0.000   3.715
   19        1.357   2.359   0.000   3.715
   20        1.357   2.359   0.000   3.715
--------------------------------------------------
tot         21.504  35.471  24.156  81.131



 magnetization (x)

# of ion       s       p       d       tot
------------------------------------------
    1       -0.000  -0.000  -0.015  -0.015
    2       -0.000  -0.000  -0.015  -0.015
    3        0.000   0.000   0.015   0.015
    4        0.000   0.000   0.015   0.015
    5        0.000   0.000   0.000   0.000
    6        0.000   0.000   0.000   0.000
    7        0.000   0.000   0.000   0.000
    8        0.000   0.000   0.000   0.000
    9        0.000   0.000   0.000   0.000
   10        0.000   0.000   0.000   0.000
   11       -0.000  -0.000   0.000  -0.000
   12        0.000   0.000   0.000   0.000
   13        0.000   0.000   0.000   0.000
   14       -0.000  -0.000   0.000  -0.000
   15        0.000   0.000   0.000   0.000
   16        0.000   0.000   0.000   0.000
   17       -0.000  -0.000   0.000  -0.000
   18        0.000   0.000   0.000   0.000
   19        0.000   0.000   0.000   0.000
   20       -0.000  -0.000   0.000  -0.000
--------------------------------------------------
tot          0.000   0.000   0.000   0.000



 magnetization (y)

# of ion       s       p       d       tot
------------------------------------------
    1        0.000  -0.000   0.000   0.000
    2        0.000  -0.000   0.000   0.000
    3        0.000  -0.000   0.000   0.000
    4        0.000  -0.000   0.000   0.000
    5        0.000   0.000   0.000   0.000
    6       -0.000  -0.000   0.000  -0.000
    7       -0.000  -0.000   0.000  -0.000
    8        0.000   0.000   0.000   0.000
    9        0.000  -0.000   0.000  -0.000
   10       -0.000  -0.000   0.000  -0.000
   11        0.000  -0.000   0.000  -0.000
   12        0.000  -0.000   0.000  -0.000
   13       -0.000  -0.000   0.000  -0.000
   14       -0.000  -0.000   0.000  -0.000
   15       -0.000  -0.000   0.000  -0.000
   16        0.000  -0.000   0.000  -0.000
   17       -0.000  -0.000   0.000  -0.000
   18       -0.000  -0.000   0.000  -0.000
   19        0.000  -0.000   0.000  -0.000
   20        0.000  -0.000   0.000  -0.000
--------------------------------------------------
tot         -0.000  -0.001   0.001   0.000



 magnetization (z)

# of ion       s       p       d       tot
------------------------------------------
    1        0.025   0.018   3.473   3.517
    2        0.025   0.018   3.473   3.517
    3       -0.025  -0.018  -3.473  -3.517
    4       -0.025  -0.018  -3.473  -3.517
    5        0.000   0.000   0.000   0.000
    6        0.000   0.000   0.000   0.000
    7        0.000   0.000   0.000   0.000
    8        0.000   0.000   0.000   0.000
    9        0.000   0.000   0.000   0.000
   10        0.000   0.000   0.000   0.000
   11        0.008   0.045   0.000   0.052
   12       -0.008  -0.045   0.000  -0.052
   13       -0.008  -0.045   0.000  -0.052
   14        0.008   0.045   0.000   0.052
   15        0.000   0.000   0.000   0.000
   16        0.000   0.000   0.000   0.000
   17        0.008   0.045   0.000   0.052
   18       -0.008  -0.045   0.000  -0.052
   19       -0.008  -0.045   0.000  -0.052
   20        0.008   0.045   0.000   0.052
--------------------------------------------------
tot          0.000   0.000   0.000   0.000
 

 total amount of memory used by VASP MPI-rank0  1079448. kBytes
=======================================================================

   base      :      30000. kBytes
   nonl-proj :     409973. kBytes
   fftplans  :       7276. kBytes
   grid      :      37158. kBytes
   one-center:       1244. kBytes
   wavefun   :     593797. kBytes
 
  
  
 General timing and accounting informations for this job:
 ========================================================
  
                  Total CPU time used (sec):     1273.010
                            User time (sec):     1246.317
                          System time (sec):       26.692
                         Elapsed time (sec):     1273.965
  
                   Maximum memory used (kb):     1305868.
                   Average memory used (kb):          N/A
  
                          Minor page faults:        45858
                          Major page faults:         1924
                 Voluntary context switches:         1565
