 vasp.6.4.1 05Apr23 (build Dec 17 2023 18:41:00) complex                        
  
 executed on             LinuxIFC date 2024.03.10  08:50:53
 running    8 mpi-ranks, on    1 nodes
 distrk:  each k-point on    8 cores,    1 groups
 distr:  one band on NCORE=   1 cores,    8 groups


--------------------------------------------------------------------------------------------------------


 INCAR:
   PREC = Accurate
   ISMEAR = 0
   SIGMA = 0.1
   ENCUT = 300.00
   NELM = 300
   ISPIN = 2
   IVDW = 11
   LSORBIT = .TRUE.
   EDIFF = 1E-06
   LORBIT = 11
   LWAVE = .False.
   LCHARG = .False.
   SAXIS = 0 0 1
   NELECT = 76.0
   MAGMOM = 0.0 0.0 3.0 0.0 0.0 3.0 0.0 0.0 -3.0 0.0 0.0 -3.0 24*0
   LDAU = .TRUE.
   LDAUTYPE = 1
   LDAUL = 2 -1 -1
   LDAUU = 4  0 0
   LDAUJ = 1  0  0
   LMAXMIX = 4

 POTCAR:    PAW_PBE Cr 06Sep2000                  
 POTCAR:    PAW_PBE S 06Sep2000                   
 POTCAR:    PAW_PBE Br 06Sep2000                  
 -----------------------------------------------------------------------------
|                                                                             |
|           W    W    AA    RRRRR   N    N  II  N    N   GGGG   !!!           |
|           W    W   A  A   R    R  NN   N  II  NN   N  G    G  !!!           |
|           W    W  A    A  R    R  N N  N  II  N N  N  G       !!!           |
|           W WW W  AAAAAA  RRRRR   N  N N  II  N  N N  G  GGG   !            |
|           WW  WW  A    A  R   R   N   NN  II  N   NN  G    G                |
|           W    W  A    A  R    R  N    N  II  N    N   GGGG   !!!           |
|                                                                             |
|     For optimal performance we recommend to set                             |
|       NCORE = 2 up to number-of-cores-per-socket                            |
|     NCORE specifies how many cores store one orbital (NPAR=cpu/NCORE).      |
|     This setting can greatly improve the performance of VASP for DFT.       |
|     The default, NCORE=1 might be grossly inefficient on modern             |
|     multi-core architectures or massively parallel machines. Do your        |
|     own testing! More info at https://www.vasp.at/wiki/index.php/NCORE      |
|     Unfortunately you need to use the default for GW and RPA                |
|     calculations (for HF NCORE is supported but not extensively tested      |
|     yet).                                                                   |
|                                                                             |
 -----------------------------------------------------------------------------

 POTCAR:    PAW_PBE Cr 06Sep2000                  
   SHA256 =  56e7271fac8042f322b235801e26979132a24da65eb043fa6a03029023cb2fcc Cr/POTCAR             
   COPYR  = (c) Copyright 06Sep2000 Georg Kresse                                                    
   COPYR  = This file is part of the software VASP. Any use, copying, and all other rights are regul
   COPYR  = If you do not have a valid VASP license, you may not use, copy or distribute this file. 
   VRHFIN =Cr : d5 s1                                                                               
   LEXCH  = PE                                                                                      
   EATOM  =   276.8859 eV,   20.3505 Ry                                                             
                                                                                                    
   TITEL  = PAW_PBE Cr 06Sep2000                                                                    
   LULTRA =        F    use ultrasoft PP ?                                                          
   IUNSCR =        1    unscreen: 0-lin 1-nonlin 2-no                                               
   RPACOR =    2.080    partial core radius                                                         
   POMASS =   51.996; ZVAL   =    6.000    mass and valenz                                          
   RCORE  =    2.500    outmost cutoff radius                                                       
   RWIGS  =    2.500; RWIGS  =    1.323    wigner-seitz radius (au A)                               
   ENMAX  =  227.080; ENMIN  =  170.310 eV                                                          
   RCLOC  =    1.721    cutoff for local pot                                                        
   LCOR   =        T    correct aug charges                                                         
   LPAW   =        T    paw PP                                                                      
   EAUG   =  402.108                                                                                
   DEXC   =    0.000                                                                                
   RMAX   =    2.552    core radius for proj-oper                                                   
   RAUG   =    1.300    factor for augmentation sphere                                              
   RDEP   =    2.609    radius for radial grids                                                     
   RDEPT  =    2.065    core radius for aug-charge                                                  
                                                                                                    
   Atomic configuration                                                                             
    9 entries                                                                                       
     n  l   j            E        occ.                                                              
     1  0  0.50     -5880.4963   2.0000                                                             
     2  0  0.50      -667.0865   2.0000                                                             
     2  1  1.50      -560.6250   6.0000                                                             
     3  0  0.50       -73.9860   2.0000                                                             
     3  1  1.50       -45.4378   6.0000                                                             
     3  2  2.50        -2.9137   5.0000                                                             
     4  0  0.50        -4.0071   1.0000                                                             
     4  1  0.50        -1.2789   0.0000                                                             
     4  3  2.50        -1.3606   0.0000                                                             
   Description                                                                                      
     l       E           TYP  RCUT    TYP  RCUT                                                     
     2     -2.9136677     23  2.500                                                                 
     2     -4.2742503     23  2.500                                                                 
     0     -4.0071322     23  2.500                                                                 
     0      9.4498801     23  2.500                                                                 
     1     -5.4423304     23  2.500                                                                 
     1     27.2116520     23  2.500                                                                 
  local pseudopotential read in
  partial core-charges read in
  partial kinetic energy density read in
  atomic valenz-charges read in
  non local Contribution for L=           2  read in
    real space projection operators read in
  non local Contribution for L=           2  read in
    real space projection operators read in
  non local Contribution for L=           0  read in
    real space projection operators read in
  non local Contribution for L=           0  read in
    real space projection operators read in
  non local Contribution for L=           1  read in
    real space projection operators read in
  non local Contribution for L=           1  read in
    real space projection operators read in
    PAW grid and wavefunctions read in
 
   number of l-projection  operators is LMAX  =           6
   number of lm-projection operators is LMMAX =          18
 
 POTCAR:    PAW_PBE S 06Sep2000                   
   SHA256 =  0fc7481fb0695f01bdc6462160264c5c84044ae9ec85a907d398b887a2bc3132 S/POTCAR              
   COPYR  = (c) Copyright 06Sep2000 Georg Kresse                                                    
   COPYR  = This file is part of the software VASP. Any use, copying, and all other rights are regul
   COPYR  = If you do not have a valid VASP license, you may not use, copy or distribute this file. 
   VRHFIN =S : s2p4                                                                                 
   LEXCH  = PE                                                                                      
   EATOM  =   276.8230 eV,   20.3459 Ry                                                             
                                                                                                    
   TITEL  = PAW_PBE S 06Sep2000                                                                     
   LULTRA =        F    use ultrasoft PP ?                                                          
   IUNSCR =        1    unscreen: 0-lin 1-nonlin 2-no                                               
   RPACOR =    1.500    partial core radius                                                         
   POMASS =   32.066; ZVAL   =    6.000    mass and valenz                                          
   RCORE  =    1.900    outmost cutoff radius                                                       
   RWIGS  =    2.200; RWIGS  =    1.164    wigner-seitz radius (au A)                               
   ENMAX  =  258.689; ENMIN  =  194.016 eV                                                          
   ICORE  =        2    local potential                                                             
   LCOR   =        T    correct aug charges                                                         
   LPAW   =        T    paw PP                                                                      
   EAUG   =  335.092                                                                                
   DEXC   =    0.000                                                                                
   RMAX   =    1.942    core radius for proj-oper                                                   
   RAUG   =    1.300    factor for augmentation sphere                                              
   RDEP   =    1.954    radius for radial grids                                                     
   RDEPT  =    1.744    core radius for aug-charge                                                  
                                                                                                    
   Atomic configuration                                                                             
    6 entries                                                                                       
     n  l   j            E        occ.                                                              
     1  0  0.50     -2405.8406   2.0000                                                             
     2  0  0.50      -211.7007   2.0000                                                             
     2  1  1.50      -156.4958   6.0000                                                             
     3  0  0.50       -17.2562   2.0000                                                             
     3  1  0.50        -7.0085   4.0000                                                             
     3  2  1.50        -6.8029   0.0000                                                             
   Description                                                                                      
     l       E           TYP  RCUT    TYP  RCUT                                                     
     0    -17.2561641     23  1.900                                                                 
     0    -15.8743224     23  1.900                                                                 
     1     -7.0085400     23  1.900                                                                 
     1     -2.7779785     23  1.900                                                                 
     2     -6.8029130     23  1.900                                                                 
  local pseudopotential read in
  partial core-charges read in
  partial kinetic energy density read in
  atomic valenz-charges read in
  non local Contribution for L=           0  read in
    real space projection operators read in
  non local Contribution for L=           0  read in
    real space projection operators read in
  non local Contribution for L=           1  read in
    real space projection operators read in
  non local Contribution for L=           1  read in
    real space projection operators read in
    PAW grid and wavefunctions read in
 
   number of l-projection  operators is LMAX  =           4
   number of lm-projection operators is LMMAX =           8
 
 POTCAR:    PAW_PBE Br 06Sep2000                  
   SHA256 =  96a73d2954943bbee26f4990d676cc6c3bf44b8dd2c75cd4b3b825d8403f0103 Br/POTCAR             
   COPYR  = (c) Copyright 06Sep2000 Georg Kresse                                                    
   COPYR  = This file is part of the software VASP. Any use, copying, and all other rights are regul
   COPYR  = If you do not have a valid VASP license, you may not use, copy or distribute this file. 
   VRHFIN =Br: s2p5                                                                                 
   LEXCH  = PE                                                                                      
   EATOM  =   368.4488 eV,   27.0802 Ry                                                             
                                                                                                    
   TITEL  = PAW_PBE Br 06Sep2000                                                                    
   LULTRA =        F    use ultrasoft PP ?                                                          
   IUNSCR =        1    unscreen: 0-lin 1-nonlin 2-no                                               
   RPACOR =    1.900    partial core radius                                                         
   POMASS =   79.904; ZVAL   =    7.000    mass and valenz                                          
   RCORE  =    2.100    outmost cutoff radius                                                       
   RWIGS  =    2.200; RWIGS  =    1.164    wigner-seitz radius (au A)                               
   ENMAX  =  216.285; ENMIN  =  162.214 eV                                                          
   ICORE  =        3    local potential                                                             
   LCOR   =        T    correct aug charges                                                         
   LPAW   =        T    paw PP                                                                      
   EAUG   =  503.852                                                                                
   DEXC   =    0.000                                                                                
   RMAX   =    2.139    core radius for proj-oper                                                   
   RAUG   =    1.300    factor for augmentation sphere                                              
   RDEP   =    2.186    radius for radial grids                                                     
   RDEPT  =    1.890    core radius for aug-charge                                                  
                                                                                                    
   Atomic configuration                                                                             
   10 entries                                                                                       
     n  l   j            E        occ.                                                              
     1  0  0.50    -13316.2796   2.0000                                                             
     2  0  0.50     -1732.8239   2.0000                                                             
     2  1  1.50     -1528.2193   6.0000                                                             
     3  0  0.50      -238.0460   2.0000                                                             
     3  1  1.50      -173.4609   6.0000                                                             
     3  2  2.50       -66.7132  10.0000                                                             
     4  0  0.50       -20.1334   2.0000                                                             
     4  1  0.50        -7.8591   5.0000                                                             
     4  2  2.50        -8.1635   0.0000                                                             
     4  3  2.50        -8.1635   0.0000                                                             
   Description                                                                                      
     l       E           TYP  RCUT    TYP  RCUT                                                     
     0    -20.1333652     23  2.100                                                                 
     0    -21.4939478     23  2.100                                                                 
     1     -7.8591052     23  2.100                                                                 
     1     -3.1608434     23  2.100                                                                 
     2     -8.1634956     23  2.100                                                                 
     3     -1.3605826      7  2.100                                                                 
  local pseudopotential read in
  partial core-charges read in
  partial kinetic energy density read in
  atomic valenz-charges read in
  non local Contribution for L=           0  read in
    real space projection operators read in
  non local Contribution for L=           0  read in
    real space projection operators read in
  non local Contribution for L=           1  read in
    real space projection operators read in
  non local Contribution for L=           1  read in
    real space projection operators read in
  non local Contribution for L=           2  read in
    real space projection operators read in
    PAW grid and wavefunctions read in
 
   number of l-projection  operators is LMAX  =           5
   number of lm-projection operators is LMMAX =          13
 
  PAW_PBE Cr 06Sep2000                  :
 energy of atom  1       EATOM= -276.8859
 kinetic energy error for atom=    0.0128 (will be added to EATOM!!)
  PAW_PBE S 06Sep2000                   :
 energy of atom  2       EATOM= -276.8230
 kinetic energy error for atom=    0.0077 (will be added to EATOM!!)
  PAW_PBE Br 06Sep2000                  :
 energy of atom  3       EATOM= -368.4488
 kinetic energy error for atom=    0.0072 (will be added to EATOM!!)
 
 
 POSCAR: Cr S Br
  positions in cartesian coordinates
  No initial velocities read in
 exchange correlation table for  LEXCH =        8
   RHO(1)=    0.500       N(1)  =     2000
   RHO(2)=  100.500       N(2)  =     4000
 


--------------------------------------------------------------------------------------------------------


 ion  position               nearest neighbor table
   1  0.750  0.250  0.112-   6 2.38   6 2.38   5 2.39   5 2.39   9 2.50   9 2.50
   2  0.250  0.750  0.241-   5 2.38   5 2.38   6 2.39   6 2.39  10 2.50  10 2.50
   3  0.750  0.250  0.612-   8 2.38   8 2.38   7 2.39   7 2.39  11 2.50  11 2.50
   4  0.250  0.750  0.741-   7 2.38   7 2.38   8 2.39   8 2.39  12 2.50  12 2.50
   5  0.750  0.750  0.140-   2 2.38   2 2.38   1 2.39   1 2.39
   6  0.250  0.250  0.212-   1 2.38   1 2.38   2 2.39   2 2.39
   7  0.750  0.750  0.640-   4 2.38   4 2.38   3 2.39   3 2.39
   8  0.250  0.250  0.712-   3 2.38   3 2.38   4 2.39   4 2.39
   9  0.250  0.250  0.000-   1 2.50   1 2.50
  10  0.750  0.750  0.352-   2 2.50   2 2.50
  11  0.250  0.250  0.500-   3 2.50   3 2.50
  12  0.750  0.750  0.852-   4 2.50   4 2.50
 
  LATTYP: Found a simple orthorhombic cell.
 ALAT       =     3.5310201300
 B/A-ratio  =     1.3283806258
 C/A-ratio  =     4.5114271665
  
  Lattice vectors:
  
 A1 = (   3.5310201300,   0.0000000000,   0.0000000000)
 A2 = (   0.0000000000,   4.6905387300,   0.0000000000)
 A3 = (   0.0000000000,   0.0000000000,  15.9299401400)


Analysis of symmetry for initial positions (statically):
=====================================================================
 Subroutine PRICEL returns following result:
 
  LATTYP: Found a simple orthorhombic cell.
 ALAT       =     3.5310201300
 B/A-ratio  =     1.3283806258
 C/A-ratio  =     2.2557135833
  
  Lattice vectors:
  
 A1 = (   3.5310201300,   0.0000000000,   0.0000000000)
 A2 = (   0.0000000000,   4.6905387300,   0.0000000000)
 A3 = (   0.0000000000,   0.0000000000,   7.9649700700)
 
   2 primitive cells build up your supercell.
 

 Routine SETGRP: Setting up the symmetry group for a 
 simple orthorhombic supercell.


 Subroutine GETGRP returns: Found  8 space group operations
 (whereof  1 operations were pure point group operations)
 out of a pool of  8 trial point group operations.


The static configuration has the point symmetry C_1 .
 The point group associated with its full space group is D_2h.


Analysis of symmetry for dynamics (positions and initial velocities):
=====================================================================
 Subroutine PRICEL returns following result:
 
  LATTYP: Found a simple orthorhombic cell.
 ALAT       =     3.5310201300
 B/A-ratio  =     1.3283806258
 C/A-ratio  =     2.2557135833
  
  Lattice vectors:
  
 A1 = (   3.5310201300,   0.0000000000,   0.0000000000)
 A2 = (   0.0000000000,   4.6905387300,   0.0000000000)
 A3 = (   0.0000000000,   0.0000000000,   7.9649700700)
 
   2 primitive cells build up your supercell.
 

 Routine SETGRP: Setting up the symmetry group for a 
 simple orthorhombic supercell.


 Subroutine GETGRP returns: Found  8 space group operations
 (whereof  1 operations were pure point group operations)
 out of a pool of  8 trial point group operations.


The dynamic configuration has the point symmetry C_1 .
 The point group associated with its full space group is D_2h.


Analysis of structural, dynamic, and magnetic symmetry:
=====================================================================
 Subroutine PRICEL returns:
 Original cell was already a primitive cell.
 

 Routine SETGRP: Setting up the symmetry group for a 
 simple orthorhombic supercell.


 Subroutine GETGRP returns: Found  8 space group operations
 (whereof  1 operations were pure point group operations)
 out of a pool of  8 trial point group operations.


The overall configuration has the point symmetry C_1 .
 The point group associated with its full space group is D_2h.


 Subroutine INISYM returns: Found  8 space group operations
 (whereof  1 operations are pure point group operations),
 and found     1 'primitive' translations


----------------------------------------------------------------------------------------

                                     Primitive cell                                     

  volume of cell :     263.8378

  direct lattice vectors                    reciprocal lattice vectors
     3.531020130  0.000000000  0.000000000     0.283204276  0.000000000  0.000000000
     0.000000000  4.690538730  0.000000000     0.000000000  0.213195127  0.000000000
     0.000000000  0.000000000 15.929940140     0.000000000  0.000000000  0.062774875

  length of vectors
     3.531020130  4.690538730 15.929940140     0.283204276  0.213195127  0.062774875

  position of ions in fractional coordinates (direct lattice)
     0.750000001  0.250000004  0.111554075
     0.249999991  0.749999990  0.240670772
     0.750000001  0.250000004  0.611554075
     0.249999991  0.749999990  0.740670772
     0.750000001  0.749999990  0.140218054
     0.249999991  0.250000004  0.212006793
     0.750000001  0.749999990  0.640218054
     0.249999991  0.250000004  0.712006793
     0.249999991  0.250000004  0.000000000
     0.750000001  0.749999990  0.352224847
     0.249999991  0.250000004  0.500000000
     0.750000001  0.749999990  0.852224847

  ion indices of the primitive-cell ions
   primitive index   ion index
                 1           1
                 2           2
                 3           3
                 4           4
                 5           5
                 6           6
                 7           7
                 8           8
                 9           9
                10          10
                11          11
                12          12

----------------------------------------------------------------------------------------

 
 
 KPOINTS: Automatic generation                    

Automatic generation of k-mesh.
 Grid dimensions read from file:
 generate k-points for:   11    9    2

 Generating k-lattice:

  Cartesian coordinates                     Fractional coordinates (reciprocal lattice)
     0.025745843  0.000000000  0.000000000     0.090909091  0.000000000  0.000000000
     0.000000000  0.023688347  0.000000000     0.000000000  0.111111111  0.000000000
     0.000000000  0.000000000  0.031387437     0.000000000  0.000000000  0.500000000

  Length of vectors
     0.025745843  0.023688347  0.031387437

  Shift w.r.t. Gamma in fractional coordinates (k-lattice)
     0.000000000  0.000000000  0.000000000

 
 Subroutine IBZKPT returns following result:
 ===========================================
 
 Found     60 irreducible k-points:
 
 Following reciprocal coordinates:
            Coordinates               Weight
  0.000000  0.000000  0.000000      1.000000
  0.090909  0.000000  0.000000      2.000000
  0.181818  0.000000  0.000000      2.000000
  0.272727  0.000000  0.000000      2.000000
  0.363636  0.000000  0.000000      2.000000
  0.454545  0.000000  0.000000      2.000000
  0.000000  0.111111  0.000000      2.000000
  0.090909  0.111111  0.000000      4.000000
  0.181818  0.111111  0.000000      4.000000
  0.272727  0.111111  0.000000      4.000000
  0.363636  0.111111  0.000000      4.000000
  0.454545  0.111111  0.000000      4.000000
  0.000000  0.222222  0.000000      2.000000
  0.090909  0.222222  0.000000      4.000000
  0.181818  0.222222  0.000000      4.000000
  0.272727  0.222222  0.000000      4.000000
  0.363636  0.222222  0.000000      4.000000
  0.454545  0.222222  0.000000      4.000000
  0.000000  0.333333  0.000000      2.000000
  0.090909  0.333333  0.000000      4.000000
  0.181818  0.333333  0.000000      4.000000
  0.272727  0.333333  0.000000      4.000000
  0.363636  0.333333  0.000000      4.000000
  0.454545  0.333333  0.000000      4.000000
  0.000000  0.444444  0.000000      2.000000
  0.090909  0.444444  0.000000      4.000000
  0.181818  0.444444  0.000000      4.000000
  0.272727  0.444444  0.000000      4.000000
  0.363636  0.444444  0.000000      4.000000
  0.454545  0.444444  0.000000      4.000000
  0.000000  0.000000  0.500000      1.000000
  0.090909  0.000000  0.500000      2.000000
  0.181818  0.000000  0.500000      2.000000
  0.272727  0.000000  0.500000      2.000000
  0.363636  0.000000  0.500000      2.000000
  0.454545  0.000000  0.500000      2.000000
  0.000000  0.111111  0.500000      2.000000
  0.090909  0.111111  0.500000      4.000000
  0.181818  0.111111  0.500000      4.000000
  0.272727  0.111111  0.500000      4.000000
  0.363636  0.111111  0.500000      4.000000
  0.454545  0.111111  0.500000      4.000000
  0.000000  0.222222  0.500000      2.000000
  0.090909  0.222222  0.500000      4.000000
  0.181818  0.222222  0.500000      4.000000
  0.272727  0.222222  0.500000      4.000000
  0.363636  0.222222  0.500000      4.000000
  0.454545  0.222222  0.500000      4.000000
  0.000000  0.333333  0.500000      2.000000
  0.090909  0.333333  0.500000      4.000000
  0.181818  0.333333  0.500000      4.000000
  0.272727  0.333333  0.500000      4.000000
  0.363636  0.333333  0.500000      4.000000
  0.454545  0.333333  0.500000      4.000000
  0.000000  0.444444  0.500000      2.000000
  0.090909  0.444444  0.500000      4.000000
  0.181818  0.444444  0.500000      4.000000
  0.272727  0.444444  0.500000      4.000000
  0.363636  0.444444  0.500000      4.000000
  0.454545  0.444444  0.500000      4.000000
 
 Following cartesian coordinates:
            Coordinates               Weight
  0.000000  0.000000  0.000000      1.000000
  0.025746  0.000000  0.000000      2.000000
  0.051492  0.000000  0.000000      2.000000
  0.077238  0.000000  0.000000      2.000000
  0.102983  0.000000  0.000000      2.000000
  0.128729  0.000000  0.000000      2.000000
  0.000000  0.023688  0.000000      2.000000
  0.025746  0.023688  0.000000      4.000000
  0.051492  0.023688  0.000000      4.000000
  0.077238  0.023688  0.000000      4.000000
  0.102983  0.023688  0.000000      4.000000
  0.128729  0.023688  0.000000      4.000000
  0.000000  0.047377  0.000000      2.000000
  0.025746  0.047377  0.000000      4.000000
  0.051492  0.047377  0.000000      4.000000
  0.077238  0.047377  0.000000      4.000000
  0.102983  0.047377  0.000000      4.000000
  0.128729  0.047377  0.000000      4.000000
  0.000000  0.071065  0.000000      2.000000
  0.025746  0.071065  0.000000      4.000000
  0.051492  0.071065  0.000000      4.000000
  0.077238  0.071065  0.000000      4.000000
  0.102983  0.071065  0.000000      4.000000
  0.128729  0.071065  0.000000      4.000000
  0.000000  0.094753  0.000000      2.000000
  0.025746  0.094753  0.000000      4.000000
  0.051492  0.094753  0.000000      4.000000
  0.077238  0.094753  0.000000      4.000000
  0.102983  0.094753  0.000000      4.000000
  0.128729  0.094753  0.000000      4.000000
  0.000000  0.000000  0.031387      1.000000
  0.025746  0.000000  0.031387      2.000000
  0.051492  0.000000  0.031387      2.000000
  0.077238  0.000000  0.031387      2.000000
  0.102983  0.000000  0.031387      2.000000
  0.128729  0.000000  0.031387      2.000000
  0.000000  0.023688  0.031387      2.000000
  0.025746  0.023688  0.031387      4.000000
  0.051492  0.023688  0.031387      4.000000
  0.077238  0.023688  0.031387      4.000000
  0.102983  0.023688  0.031387      4.000000
  0.128729  0.023688  0.031387      4.000000
  0.000000  0.047377  0.031387      2.000000
  0.025746  0.047377  0.031387      4.000000
  0.051492  0.047377  0.031387      4.000000
  0.077238  0.047377  0.031387      4.000000
  0.102983  0.047377  0.031387      4.000000
  0.128729  0.047377  0.031387      4.000000
  0.000000  0.071065  0.031387      2.000000
  0.025746  0.071065  0.031387      4.000000
  0.051492  0.071065  0.031387      4.000000
  0.077238  0.071065  0.031387      4.000000
  0.102983  0.071065  0.031387      4.000000
  0.128729  0.071065  0.031387      4.000000
  0.000000  0.094753  0.031387      2.000000
  0.025746  0.094753  0.031387      4.000000
  0.051492  0.094753  0.031387      4.000000
  0.077238  0.094753  0.031387      4.000000
  0.102983  0.094753  0.031387      4.000000
  0.128729  0.094753  0.031387      4.000000
 


--------------------------------------------------------------------------------------------------------




 Dimension of arrays:
   k-points           NKPTS =     60   k-points in BZ     NKDIM =     60   number of bands    NBANDS=     96
   number of dos      NEDOS =    301   number of ions     NIONS =     12
   non local maximal  LDIM  =      6   non local SUM 2l+1 LMDIM =     18
   total plane-waves  NPLWV =  50400
   max r-space proj   IRMAX =      1   max aug-charges    IRDMAX=   9957
   dimension x,y,z NGX =    20 NGY =   28 NGZ =   90
   dimension x,y,z NGXF=    40 NGYF=   56 NGZF=  180
   support grid    NGXF=    40 NGYF=   56 NGZF=  180
   ions per type =               4   4   4
   NGX,Y,Z   is equivalent  to a cutoff of   9.42,  9.92,  9.39 a.u.
   NGXF,Y,Z  is equivalent  to a cutoff of  18.83, 19.85, 18.78 a.u.

 SYSTEM =  unknown system                          
 POSCAR =  Cr S Br                                 

 Startparameter for this run:
   NWRITE =      2    write-flag & timer
   PREC   = accura    normal or accurate (medium, high low for compatibility)
   ISTART =      0    job   : 0-new  1-cont  2-samecut
   ICHARG =      2    charge: 1-file 2-atom 10-const
   ISPIN  =      1    spin polarized calculation?
   LNONCOLLINEAR =      T non collinear calculations
   LSORBIT =      T    spin-orbit coupling
   INIWAV =      1    electr: 0-lowe 1-rand  2-diag
   LASPH  =      F    aspherical Exc in radial PAW
 Electronic Relaxation 1
   ENCUT  =  300.0 eV  22.05 Ry    4.70 a.u.   4.99  6.62 22.50*2*pi/ulx,y,z
   ENINI  =  300.0     initial cutoff
   ENAUG  =  503.9 eV  augmentation charge cutoff
   NELM   =    300;   NELMIN=  2; NELMDL= -5     # of ELM steps 
   EDIFF  = 0.1E-05   stopping-criterion for ELM
   LREAL  =      F    real-space projection
   NLSPLINE    = F    spline interpolate recip. space projectors
   LCOMPAT=      F    compatible to vasp.4.4
   GGA_COMPAT  = T    GGA compatible to vasp.4.4-vasp.4.6
   LMAXPAW     = -100 max onsite density
   LMAXMIX     =    4 max onsite mixed and CHGCAR
   VOSKOWN=      0    Vosko Wilk Nusair interpolation
   ROPT   =    0.00000   0.00000   0.00000
 Ionic relaxation
   EDIFFG = 0.1E-04   stopping-criterion for IOM
   NSW    =      0    number of steps for IOM
   NBLOCK =      1;   KBLOCK =      1    inner block; outer block 
   IBRION =     -1    ionic relax: 0-MD 1-quasi-New 2-CG
   NFREE  =      0    steps in history (QN), initial steepest desc. (CG)
   ISIF   =      2    stress and relaxation
   IWAVPR =     10    prediction:  0-non 1-charg 2-wave 3-comb
   ISYM   =      2    0-nonsym 1-usesym 2-fastsym
   LCORR  =      T    Harris-Foulkes like correction to forces

   POTIM  = 0.5000    time-step for ionic-motion
   TEIN   =    0.0    initial temperature
   TEBEG  =    0.0;   TEEND  =   0.0 temperature during run
   SMASS  =  -3.00    Nose mass-parameter (am)
   estimated Nose-frequenzy (Omega)   =  0.10E-29 period in steps = 0.13E+47 mass=  -0.285E-27a.u.
   SCALEE = 1.0000    scale energy and forces
   NPACO  =    256;   APACO  = 10.0  distance and # of slots for P.C.
   PSTRESS=    0.0 pullay stress

  Mass of Ions in am
   POMASS =  52.00 32.07 79.90
  Ionic Valenz
   ZVAL   =   6.00  6.00  7.00
  Atomic Wigner-Seitz radii
   RWIGS  =  -1.00 -1.00 -1.00
  virtual crystal weights 
   VCA    =   1.00  1.00  1.00
   NELECT =      76.0000    total number of electrons
   NUPDOWN=      -1.0000    fix difference up-down

 DOS related values:
   EMIN   =  10.00;   EMAX   =-10.00  energy-range for DOS
   EFERMI =   0.00;   METHOD = LEGACY      
   ISMEAR =     0;   SIGMA  =   0.10  broadening in eV -4-tet -1-fermi 0-gaus

 Electronic relaxation 2 (details)
   IALGO  =     38    algorithm
   LDIAG  =      T    sub-space diagonalisation (order eigenvalues)
   LSUBROT=      F    optimize rotation matrix (better conditioning)
   TURBO    =      0    0=normal 1=particle mesh
   IRESTART =      0    0=no restart 2=restart with 2 vectors
   NREBOOT  =      0    no. of reboots
   NMIN     =      0    reboot dimension
   EREF     =   0.00    reference energy to select bands
   IMIX   =      4    mixing-type and parameters
     AMIX     =   0.40;   BMIX     =  1.00
     AMIX_MAG =   1.60;   BMIX_MAG =  1.00
     AMIN     =   0.10
     WC   =   100.;   INIMIX=   1;  MIXPRE=   1;  MAXMIX= -45

 Intra band minimization:
   WEIMIN = 0.0000     energy-eigenvalue tresh-hold
   EBREAK =  0.26E-08  absolut break condition
   DEPER  =   0.30     relativ break condition  

   TIME   =   0.40     timestep for ELM

  volume/ion in A,a.u.               =      21.99       148.37
  Fermi-wavevector in a.u.,A,eV,Ry     =   1.081186  2.043145 15.904704  1.168963
  Thomas-Fermi vector in A             =   2.217196
 
 Write flags
   LWAVE        =      F    write WAVECAR
   LDOWNSAMPLE  =      F    k-point downsampling of WAVECAR
   LCHARG       =      F    write CHGCAR
   LVTOT        =      F    write LOCPOT, total local potential
   LVHAR        =      F    write LOCPOT, Hartree potential only
   LELF         =      F    write electronic localiz. function (ELF)
   LORBIT       =     11    0 simple, 1 ext, 2 COOP (PROOUT), +10 PAW based schemes


 Dipole corrections
   LMONO  =      F    monopole corrections only (constant potential shift)
   LDIPOL =      F    correct potential (dipole corrections)
   IDIPOL =      0    1-x, 2-y, 3-z, 4-all directions 
   EPSILON=  1.0000000 bulk dielectric constant

 LDA+U is selected, type is set to LDAUTYPE =  1
   angular momentum for each species LDAUL =     2   -1   -1
   U (eV)           for each species LDAUU =   4.0  0.0  0.0
   J (eV)           for each species LDAUJ =   1.0  0.0  0.0
 Exchange correlation treatment:
   GGA     =    --    GGA type
   LEXCH   =     8    internal setting for exchange type
   LIBXC   =     F    Libxc                    
   VOSKOWN =     0    Vosko Wilk Nusair interpolation
   LHFCALC =     F    Hartree Fock is set to
   LHFONE  =     F    Hartree Fock one center treatment
   AEXX    =    0.0000 exact exchange contribution

 Linear response parameters
   LEPSILON=     F    determine dielectric tensor
   LRPA    =     F    only Hartree local field effects (RPA)
   LNABLA  =     F    use nabla operator in PAW spheres
   LVEL    =     F    velocity operator in full k-point grid
   CSHIFT  =0.1000    complex shift for real part using Kramers Kronig
   OMEGAMAX=  -1.0    maximum frequency
   DEG_THRESHOLD= 0.2000000E-02 threshold for treating states as degnerate
   RTIME   =   -0.100 relaxation time in fs
  (WPLASMAI=    0.000 imaginary part of plasma frequency in eV, 0.658/RTIME)
   DFIELD  = 0.0000000 0.0000000 0.0000000 field for delta impulse in time
 
  Optional k-point grid parameters
   LKPOINTS_OPT  =     F    use optional k-point grid
   KPOINTS_OPT_MODE=     1    mode for optional k-point grid
 
 Orbital magnetization related:
   ORBITALMAG=     F  switch on orbital magnetization
   LCHIMAG   =     F  perturbation theory with respect to B field
   DQ        =  0.001000  dq finite difference perturbation B field
   LLRAUG    =     F  two centre corrections for induced B field
   LBONE     =     F  B-component reconstruction in AE one-centre
   LVGVCALC  =     T  calculate vGv susceptibility
   LVGVAPPL  =     F  apply vGv susceptibility instead of pGv for G=0

 Random number generation:
   RANDOM_GENERATOR = DEFAULT
   PCG_SEED         = not used


--------------------------------------------------------------------------------------------------------


 Static calculation
 charge density and potential will be updated during run
 non collinear spin polarized calculation
 Variant of blocked Davidson
 Davidson routine will perform the subspace rotation
 perform sub-space diagonalisation
    after iterative eigenvector-optimisation
 modified Broyden-mixing scheme, WC =      100.0
 initial mixing is a Kerker type mixing with AMIX =  0.4000 and BMIX =      1.0000
 Hartree-type preconditioning will be used
 using additional bands           58
 reciprocal scheme for non local part
 use partial core corrections
 calculate Harris-corrections to forces 
   (improved forces if not selfconsistent)
 use gradient corrections 
 use of overlap-Matrix (Vanderbilt PP)
 Gauss-broadening in eV      SIGMA  =   0.10


--------------------------------------------------------------------------------------------------------


  energy-cutoff  :      300.00
  volume of cell :      263.84
      direct lattice vectors                 reciprocal lattice vectors
     3.531020130  0.000000000  0.000000000     0.283204276  0.000000000  0.000000000
     0.000000000  4.690538730  0.000000000     0.000000000  0.213195127  0.000000000
     0.000000000  0.000000000 15.929940140     0.000000000  0.000000000  0.062774875

  length of vectors
     3.531020130  4.690538730 15.929940140     0.283204276  0.213195127  0.062774875


 
 k-points in units of 2pi/SCALE and weight: Automatic generation                    
   0.00000000  0.00000000  0.00000000       0.005
   0.02574584  0.00000000  0.00000000       0.010
   0.05149169  0.00000000  0.00000000       0.010
   0.07723753  0.00000000  0.00000000       0.010
   0.10298337  0.00000000  0.00000000       0.010
   0.12872922  0.00000000  0.00000000       0.010
   0.00000000  0.02368835  0.00000000       0.010
   0.02574584  0.02368835  0.00000000       0.020
   0.05149169  0.02368835  0.00000000       0.020
   0.07723753  0.02368835  0.00000000       0.020
   0.10298337  0.02368835  0.00000000       0.020
   0.12872922  0.02368835  0.00000000       0.020
   0.00000000  0.04737669  0.00000000       0.010
   0.02574584  0.04737669  0.00000000       0.020
   0.05149169  0.04737669  0.00000000       0.020
   0.07723753  0.04737669  0.00000000       0.020
   0.10298337  0.04737669  0.00000000       0.020
   0.12872922  0.04737669  0.00000000       0.020
   0.00000000  0.07106504  0.00000000       0.010
   0.02574584  0.07106504  0.00000000       0.020
   0.05149169  0.07106504  0.00000000       0.020
   0.07723753  0.07106504  0.00000000       0.020
   0.10298337  0.07106504  0.00000000       0.020
   0.12872922  0.07106504  0.00000000       0.020
   0.00000000  0.09475339  0.00000000       0.010
   0.02574584  0.09475339  0.00000000       0.020
   0.05149169  0.09475339  0.00000000       0.020
   0.07723753  0.09475339  0.00000000       0.020
   0.10298337  0.09475339  0.00000000       0.020
   0.12872922  0.09475339  0.00000000       0.020
   0.00000000  0.00000000  0.03138744       0.005
   0.02574584  0.00000000  0.03138744       0.010
   0.05149169  0.00000000  0.03138744       0.010
   0.07723753  0.00000000  0.03138744       0.010
   0.10298337  0.00000000  0.03138744       0.010
   0.12872922  0.00000000  0.03138744       0.010
   0.00000000  0.02368835  0.03138744       0.010
   0.02574584  0.02368835  0.03138744       0.020
   0.05149169  0.02368835  0.03138744       0.020
   0.07723753  0.02368835  0.03138744       0.020
   0.10298337  0.02368835  0.03138744       0.020
   0.12872922  0.02368835  0.03138744       0.020
   0.00000000  0.04737669  0.03138744       0.010
   0.02574584  0.04737669  0.03138744       0.020
   0.05149169  0.04737669  0.03138744       0.020
   0.07723753  0.04737669  0.03138744       0.020
   0.10298337  0.04737669  0.03138744       0.020
   0.12872922  0.04737669  0.03138744       0.020
   0.00000000  0.07106504  0.03138744       0.010
   0.02574584  0.07106504  0.03138744       0.020
   0.05149169  0.07106504  0.03138744       0.020
   0.07723753  0.07106504  0.03138744       0.020
   0.10298337  0.07106504  0.03138744       0.020
   0.12872922  0.07106504  0.03138744       0.020
   0.00000000  0.09475339  0.03138744       0.010
   0.02574584  0.09475339  0.03138744       0.020
   0.05149169  0.09475339  0.03138744       0.020
   0.07723753  0.09475339  0.03138744       0.020
   0.10298337  0.09475339  0.03138744       0.020
   0.12872922  0.09475339  0.03138744       0.020
 
 k-points in reciprocal lattice and weights: Automatic generation                    
   0.00000000  0.00000000  0.00000000       0.005
   0.09090909  0.00000000  0.00000000       0.010
   0.18181818  0.00000000  0.00000000       0.010
   0.27272727  0.00000000  0.00000000       0.010
   0.36363636  0.00000000  0.00000000       0.010
   0.45454545  0.00000000  0.00000000       0.010
   0.00000000  0.11111111  0.00000000       0.010
   0.09090909  0.11111111  0.00000000       0.020
   0.18181818  0.11111111  0.00000000       0.020
   0.27272727  0.11111111  0.00000000       0.020
   0.36363636  0.11111111  0.00000000       0.020
   0.45454545  0.11111111  0.00000000       0.020
   0.00000000  0.22222222  0.00000000       0.010
   0.09090909  0.22222222  0.00000000       0.020
   0.18181818  0.22222222  0.00000000       0.020
   0.27272727  0.22222222  0.00000000       0.020
   0.36363636  0.22222222  0.00000000       0.020
   0.45454545  0.22222222  0.00000000       0.020
   0.00000000  0.33333333  0.00000000       0.010
   0.09090909  0.33333333  0.00000000       0.020
   0.18181818  0.33333333  0.00000000       0.020
   0.27272727  0.33333333  0.00000000       0.020
   0.36363636  0.33333333  0.00000000       0.020
   0.45454545  0.33333333  0.00000000       0.020
   0.00000000  0.44444444  0.00000000       0.010
   0.09090909  0.44444444  0.00000000       0.020
   0.18181818  0.44444444  0.00000000       0.020
   0.27272727  0.44444444  0.00000000       0.020
   0.36363636  0.44444444  0.00000000       0.020
   0.45454545  0.44444444  0.00000000       0.020
   0.00000000  0.00000000  0.50000000       0.005
   0.09090909  0.00000000  0.50000000       0.010
   0.18181818  0.00000000  0.50000000       0.010
   0.27272727  0.00000000  0.50000000       0.010
   0.36363636  0.00000000  0.50000000       0.010
   0.45454545  0.00000000  0.50000000       0.010
   0.00000000  0.11111111  0.50000000       0.010
   0.09090909  0.11111111  0.50000000       0.020
   0.18181818  0.11111111  0.50000000       0.020
   0.27272727  0.11111111  0.50000000       0.020
   0.36363636  0.11111111  0.50000000       0.020
   0.45454545  0.11111111  0.50000000       0.020
   0.00000000  0.22222222  0.50000000       0.010
   0.09090909  0.22222222  0.50000000       0.020
   0.18181818  0.22222222  0.50000000       0.020
   0.27272727  0.22222222  0.50000000       0.020
   0.36363636  0.22222222  0.50000000       0.020
   0.45454545  0.22222222  0.50000000       0.020
   0.00000000  0.33333333  0.50000000       0.010
   0.09090909  0.33333333  0.50000000       0.020
   0.18181818  0.33333333  0.50000000       0.020
   0.27272727  0.33333333  0.50000000       0.020
   0.36363636  0.33333333  0.50000000       0.020
   0.45454545  0.33333333  0.50000000       0.020
   0.00000000  0.44444444  0.50000000       0.010
   0.09090909  0.44444444  0.50000000       0.020
   0.18181818  0.44444444  0.50000000       0.020
   0.27272727  0.44444444  0.50000000       0.020
   0.36363636  0.44444444  0.50000000       0.020
   0.45454545  0.44444444  0.50000000       0.020
 
 position of ions in fractional coordinates (direct lattice) 
   0.75000000  0.25000000  0.11155408
   0.24999999  0.74999999  0.24067077
   0.75000000  0.25000000  0.61155408
   0.24999999  0.74999999  0.74067077
   0.75000000  0.74999999  0.14021805
   0.24999999  0.25000000  0.21200679
   0.75000000  0.74999999  0.64021805
   0.24999999  0.25000000  0.71200679
   0.24999999  0.25000000  0.00000000
   0.75000000  0.74999999  0.35222485
   0.24999999  0.25000000  0.50000000
   0.75000000  0.74999999  0.85222485
 
 position of ions in cartesian coordinates  (Angst):
   2.64826510  1.17263470  1.77704974
   0.88275500  3.51790400  3.83387099
   2.64826510  1.17263470  9.74201981
   0.88275500  3.51790400 11.79884106
   2.64826510  3.51790400  2.23366521
   0.88275500  1.17263470  3.37725552
   2.64826510  3.51790400 10.19863528
   0.88275500  1.17263470 11.34222559
   0.88275500  1.17263470  0.00000000
   2.64826510  3.51790400  5.61092073
   0.88275500  1.17263470  7.96497007
   2.64826510  3.51790400 13.57589080
 
 Euler angles ALPHA=     0.0000000  BETA=     0.0000000

 transformation matrix from SAXIS to cartesian coordinates
 ---------------------------------------------------------
     1.0000000 m_x     0.0000000 m_y     0.0000000 m_z
     0.0000000 m_x     1.0000000 m_y     0.0000000 m_z
     0.0000000 m_x     0.0000000 m_y     1.0000000 m_z

 transformation matrix from cartesian coordinates to SAXIS
 ---------------------------------------------------------
     1.0000000 m_x     0.0000000 m_y     0.0000000 m_z
     0.0000000 m_x     1.0000000 m_y     0.0000000 m_z
     0.0000000 m_x     0.0000000 m_y     1.0000000 m_z




--------------------------------------------------------------------------------------------------------


 k-point   1 :   0.0000 0.0000 0.0000  plane waves:    6138
 k-point   2 :   0.0909 0.0000 0.0000  plane waves:    6220
 k-point   3 :   0.1818 0.0000 0.0000  plane waves:    6212
 k-point   4 :   0.2727 0.0000 0.0000  plane waves:    6240
 k-point   5 :   0.3636 0.0000 0.0000  plane waves:    6276
 k-point   6 :   0.4545 0.0000 0.0000  plane waves:    6268
 k-point   7 :   0.0000 0.1111 0.0000  plane waves:    6190
 k-point   8 :   0.0909 0.1111 0.0000  plane waves:    6202
 k-point   9 :   0.1818 0.1111 0.0000  plane waves:    6228
 k-point  10 :   0.2727 0.1111 0.0000  plane waves:    6262
 k-point  11 :   0.3636 0.1111 0.0000  plane waves:    6270
 k-point  12 :   0.4545 0.1111 0.0000  plane waves:    6282
 k-point  13 :   0.0000 0.2222 0.0000  plane waves:    6178
 k-point  14 :   0.0909 0.2222 0.0000  plane waves:    6172
 k-point  15 :   0.1818 0.2222 0.0000  plane waves:    6218
 k-point  16 :   0.2727 0.2222 0.0000  plane waves:    6232
 k-point  17 :   0.3636 0.2222 0.0000  plane waves:    6274
 k-point  18 :   0.4545 0.2222 0.0000  plane waves:    6262
 k-point  19 :   0.0000 0.3333 0.0000  plane waves:    6170
 k-point  20 :   0.0909 0.3333 0.0000  plane waves:    6196
 k-point  21 :   0.1818 0.3333 0.0000  plane waves:    6218
 k-point  22 :   0.2727 0.3333 0.0000  plane waves:    6236
 k-point  23 :   0.3636 0.3333 0.0000  plane waves:    6232
 k-point  24 :   0.4545 0.3333 0.0000  plane waves:    6244
 k-point  25 :   0.0000 0.4444 0.0000  plane waves:    6140
 k-point  26 :   0.0909 0.4444 0.0000  plane waves:    6168
 k-point  27 :   0.1818 0.4444 0.0000  plane waves:    6216
 k-point  28 :   0.2727 0.4444 0.0000  plane waves:    6192
 k-point  29 :   0.3636 0.4444 0.0000  plane waves:    6230
 k-point  30 :   0.4545 0.4444 0.0000  plane waves:    6272
 k-point  31 :   0.0000 0.0000 0.5000  plane waves:    6184
 k-point  32 :   0.0909 0.0000 0.5000  plane waves:    6208
 k-point  33 :   0.1818 0.0000 0.5000  plane waves:    6236
 k-point  34 :   0.2727 0.0000 0.5000  plane waves:    6260
 k-point  35 :   0.3636 0.0000 0.5000  plane waves:    6268
 k-point  36 :   0.4545 0.0000 0.5000  plane waves:    6244
 k-point  37 :   0.0000 0.1111 0.5000  plane waves:    6164
 k-point  38 :   0.0909 0.1111 0.5000  plane waves:    6204
 k-point  39 :   0.1818 0.1111 0.5000  plane waves:    6244
 k-point  40 :   0.2727 0.1111 0.5000  plane waves:    6260
 k-point  41 :   0.3636 0.1111 0.5000  plane waves:    6248
 k-point  42 :   0.4545 0.1111 0.5000  plane waves:    6228
 k-point  43 :   0.0000 0.2222 0.5000  plane waves:    6172
 k-point  44 :   0.0909 0.2222 0.5000  plane waves:    6204
 k-point  45 :   0.1818 0.2222 0.5000  plane waves:    6232
 k-point  46 :   0.2727 0.2222 0.5000  plane waves:    6248
 k-point  47 :   0.3636 0.2222 0.5000  plane waves:    6248
 k-point  48 :   0.4545 0.2222 0.5000  plane waves:    6232
 k-point  49 :   0.0000 0.3333 0.5000  plane waves:    6148
 k-point  50 :   0.0909 0.3333 0.5000  plane waves:    6188
 k-point  51 :   0.1818 0.3333 0.5000  plane waves:    6200
 k-point  52 :   0.2727 0.3333 0.5000  plane waves:    6252
 k-point  53 :   0.3636 0.3333 0.5000  plane waves:    6232
 k-point  54 :   0.4545 0.3333 0.5000  plane waves:    6240
 k-point  55 :   0.0000 0.4444 0.5000  plane waves:    6160
 k-point  56 :   0.0909 0.4444 0.5000  plane waves:    6180
 k-point  57 :   0.1818 0.4444 0.5000  plane waves:    6180
 k-point  58 :   0.2727 0.4444 0.5000  plane waves:    6196
 k-point  59 :   0.3636 0.4444 0.5000  plane waves:    6248
 k-point  60 :   0.4545 0.4444 0.5000  plane waves:    6280

 maximum and minimum number of plane-waves per node :      6282     6138

 maximum number of plane-waves:      6282
 maximum index in each direction: 
   IXMAX=    4   IYMAX=    6   IZMAX=   22
   IXMIN=   -5   IYMIN=   -7   IZMIN=  -22


 serial   3D FFT for wavefunctions
 parallel 3D FFT for charge:
    minimum data exchange during FFTs selected (reduces bandwidth)


 total amount of memory used by VASP MPI-rank0   212109. kBytes
=======================================================================

   base      :      30000. kBytes
   nonl-proj :      82096. kBytes
   fftplans  :       3790. kBytes
   grid      :      19353. kBytes
   one-center:        746. kBytes
   wavefun   :      76124. kBytes
 
     INWAV:  cpu time      0.0001: real time      0.0001
 Broyden mixing: mesh for mixing (old mesh)
   NGX =  9   NGY = 13   NGZ = 45
  (NGX  = 40   NGY  = 56   NGZ  =180)
  gives a total of   5265 points

 initial charge density was supplied:
 charge density of overlapping atoms calculated
 number of electron      76.0000000 magnetization       0.0000000      0.0000000      0.0000000
 keeping initial charge density in first step


--------------------------------------------------------------------------------------------------------


 Maximum index for augmentation-charges         1191 (set IRDMAX)


--------------------------------------------------------------------------------------------------------


 First call to EWALD:  gamma=   0.276
 Maximum number of real-space cells 5x 4x 1
 Maximum number of reciprocal cells 2x 2x 6

    FEWALD:  cpu time      0.0010: real time      0.0010


--------------------------------------- Ionic step        1  -------------------------------------------




--------------------------------------- Iteration      1(   1)  ---------------------------------------


    POTLOK:  cpu time      0.1090: real time      0.1090
    SETDIJ:  cpu time      0.0179: real time      0.0179
     EDDAV:  cpu time     14.1207: real time     14.1210
       DOS:  cpu time      0.0019: real time      0.0019
    --------------------------------------------
      LOOP:  cpu time     14.2495: real time     14.2498

 eigenvalue-minimisations  : 11520
 total energy-change (2. order) : 0.6735640E+03  (-0.2042978E+04)
 number of electron      76.0000000 magnetization       0.0000000      0.0000000      0.0000000
 augmentation part       76.0000000 magnetization       0.0000000      0.0000000      0.0000000

 Free energy of the ion-electron system (eV)
  ---------------------------------------------------
  alpha Z        PSCENC =       183.47521989
  Ewald energy   TEWEN  =     -3027.17017058
  -Hartree energ DENC   =      -901.00215458
  -exchange      EXHF   =         0.00000000
  -V(xc)+E(xc)   XCENC  =        14.33195622
  PAW double counting   =      3156.57561875    -3025.88065104
  entropy T*S    EENTRO =        -0.02837460
  eigenvalues    EBANDS =       584.74238262
  atomic energy  EATOM  =      3688.52013978
  Solvation  Ediel_sol  =         0.00000000
  ---------------------------------------------------
  free energy    TOTEN  =       673.56396648 eV

  energy without entropy =      673.59234108  energy(sigma->0) =      673.57815378


--------------------------------------------------------------------------------------------------------




--------------------------------------- Iteration      1(   2)  ---------------------------------------


     EDDAV:  cpu time     14.0621: real time     14.0633
       DOS:  cpu time      0.0016: real time      0.0016
    --------------------------------------------
      LOOP:  cpu time     14.0637: real time     14.0649

 eigenvalue-minimisations  : 11520
 total energy-change (2. order) :-0.5909339E+03  (-0.5732024E+03)
 number of electron      76.0000000 magnetization       0.0000000      0.0000000      0.0000000
 augmentation part       76.0000000 magnetization       0.0000000      0.0000000      0.0000000

 Free energy of the ion-electron system (eV)
  ---------------------------------------------------
  alpha Z        PSCENC =       183.47521989
  Ewald energy   TEWEN  =     -3027.17017058
  -Hartree energ DENC   =      -901.00215458
  -exchange      EXHF   =         0.00000000
  -V(xc)+E(xc)   XCENC  =        14.33195622
  PAW double counting   =      3156.57561875    -3025.88065104
  entropy T*S    EENTRO =        -0.03022764
  eigenvalues    EBANDS =        -6.18970338
  atomic energy  EATOM  =      3688.52013978
  Solvation  Ediel_sol  =         0.00000000
  ---------------------------------------------------
  free energy    TOTEN  =        82.63002743 eV

  energy without entropy =       82.66025508  energy(sigma->0) =       82.64514126


--------------------------------------------------------------------------------------------------------




--------------------------------------- Iteration      1(   3)  ---------------------------------------


     EDDAV:  cpu time     19.3096: real time     19.3109
       DOS:  cpu time      0.0015: real time      0.0015
    --------------------------------------------
      LOOP:  cpu time     19.3111: real time     19.3124

 eigenvalue-minimisations  : 17792
 total energy-change (2. order) :-0.1360228E+03  (-0.1291789E+03)
 number of electron      76.0000000 magnetization       0.0000000      0.0000000      0.0000000
 augmentation part       76.0000000 magnetization       0.0000000      0.0000000      0.0000000

 Free energy of the ion-electron system (eV)
  ---------------------------------------------------
  alpha Z        PSCENC =       183.47521989
  Ewald energy   TEWEN  =     -3027.17017058
  -Hartree energ DENC   =      -901.00215458
  -exchange      EXHF   =         0.00000000
  -V(xc)+E(xc)   XCENC  =        14.33195622
  PAW double counting   =      3156.57561875    -3025.88065104
  entropy T*S    EENTRO =        -0.00421490
  eigenvalues    EBANDS =      -142.23848542
  atomic energy  EATOM  =      3688.52013978
  Solvation  Ediel_sol  =         0.00000000
  ---------------------------------------------------
  free energy    TOTEN  =       -53.39274186 eV

  energy without entropy =      -53.38852696  energy(sigma->0) =      -53.39063441


--------------------------------------------------------------------------------------------------------




--------------------------------------- Iteration      1(   4)  ---------------------------------------


     EDDAV:  cpu time     19.8074: real time     19.8081
       DOS:  cpu time      0.0014: real time      0.0014
    --------------------------------------------
      LOOP:  cpu time     19.8089: real time     19.8095

 eigenvalue-minimisations  : 18376
 total energy-change (2. order) :-0.1343835E+02  (-0.1320179E+02)
 number of electron      76.0000000 magnetization       0.0000000      0.0000000      0.0000000
 augmentation part       76.0000000 magnetization       0.0000000      0.0000000      0.0000000

 Free energy of the ion-electron system (eV)
  ---------------------------------------------------
  alpha Z        PSCENC =       183.47521989
  Ewald energy   TEWEN  =     -3027.17017058
  -Hartree energ DENC   =      -901.00215458
  -exchange      EXHF   =         0.00000000
  -V(xc)+E(xc)   XCENC  =        14.33195622
  PAW double counting   =      3156.57561875    -3025.88065104
  entropy T*S    EENTRO =        -0.00126396
  eigenvalues    EBANDS =      -155.67978229
  atomic energy  EATOM  =      3688.52013978
  Solvation  Ediel_sol  =         0.00000000
  ---------------------------------------------------
  free energy    TOTEN  =       -66.83108779 eV

  energy without entropy =      -66.82982383  energy(sigma->0) =      -66.83045581


--------------------------------------------------------------------------------------------------------




--------------------------------------- Iteration      1(   5)  ---------------------------------------


     EDDAV:  cpu time     19.3605: real time     19.3610
       DOS:  cpu time      0.0015: real time      0.0015



 total charge

# of ion       s       p       d       tot
------------------------------------------
    1        0.354   0.485   3.488   4.328
    2        0.354   0.485   3.489   4.328
    3        0.354   0.485   3.489   4.328
    4        0.354   0.485   3.488   4.328
    5        1.370   2.794   0.000   4.164
    6        1.370   2.795   0.000   4.164
    7        1.370   2.794   0.000   4.164
    8        1.370   2.794   0.000   4.164
    9        1.624   3.424   0.028   5.076
   10        1.624   3.423   0.028   5.075
   11        1.624   3.423   0.028   5.075
   12        1.624   3.423   0.028   5.075
--------------------------------------------------
tot         13.392  26.813  14.065  54.271



 magnetization (x)

# of ion       s       p       d       tot
------------------------------------------
    1        0.000  -0.000  -0.005  -0.005
    2       -0.000   0.000   0.005   0.005
    3        0.000  -0.000  -0.005  -0.005
    4       -0.000   0.000   0.005   0.005
    5       -0.000  -0.000   0.000  -0.000
    6        0.000   0.000   0.000   0.000
    7       -0.000  -0.000   0.000  -0.000
    8        0.000   0.000   0.000   0.000
    9       -0.000  -0.001   0.000  -0.001
   10        0.000   0.001  -0.000   0.001
   11       -0.000  -0.001   0.000  -0.001
   12        0.000   0.001  -0.000   0.001
--------------------------------------------------
tot         -0.000   0.000   0.000   0.001



 magnetization (y)

# of ion       s       p       d       tot
------------------------------------------
    1        0.001   0.000  -0.002  -0.001
    2       -0.001  -0.000   0.002  -0.000
    3        0.001   0.000  -0.002  -0.000
    4       -0.001  -0.000   0.002   0.001
    5       -0.000   0.000   0.000  -0.000
    6        0.000  -0.000   0.000  -0.000
    7       -0.000   0.000   0.000  -0.000
    8        0.000  -0.000   0.000   0.000
    9        0.000   0.001   0.000   0.001
   10       -0.000  -0.001  -0.000  -0.001
   11        0.000   0.001   0.000   0.001
   12       -0.000  -0.001  -0.000  -0.001
--------------------------------------------------
tot         -0.000   0.000  -0.000  -0.000



 magnetization (z)

# of ion       s       p       d       tot
------------------------------------------
    1        0.044   0.038   2.742   2.824
    2        0.044   0.038   2.742   2.825
    3       -0.044  -0.038  -2.742  -2.825
    4       -0.044  -0.038  -2.742  -2.824
    5       -0.008  -0.087   0.000  -0.095
    6       -0.008  -0.087   0.000  -0.095
    7        0.008   0.087   0.000   0.095
    8        0.008   0.087   0.000   0.096
    9       -0.001  -0.024   0.013  -0.012
   10       -0.001  -0.024   0.013  -0.012
   11        0.001   0.024  -0.013   0.012
   12        0.001   0.024  -0.013   0.012
--------------------------------------------------
tot         -0.000   0.000   0.000   0.000
 
    CHARGE:  cpu time      1.2472: real time      1.2473
    MIXING:  cpu time      0.0040: real time      0.0041
    --------------------------------------------
      LOOP:  cpu time     20.6132: real time     20.6138

 eigenvalue-minimisations  : 18040
 total energy-change (2. order) :-0.3727770E+00  (-0.3691574E+00)
 number of electron      75.9999981 magnetization       0.0000000      0.0000000      0.0000000
 augmentation part       -1.5604922 magnetization       0.0000000      0.0000000      0.0000000

 Broyden mixing:
  rms(total) = 0.27653E+01    rms(broyden)= 0.27624E+01
  rms(prec ) = 0.29916E+01
  weight for this iteration     100.00

 Free energy of the ion-electron system (eV)
  ---------------------------------------------------
  alpha Z        PSCENC =       183.47521989
  Ewald energy   TEWEN  =     -3027.17017058
  -Hartree energ DENC   =      -901.00215458
  -exchange      EXHF   =         0.00000000
  -V(xc)+E(xc)   XCENC  =        14.33195622
  PAW double counting   =      3156.57561875    -3025.88065104
  entropy T*S    EENTRO =        -0.00129041
  eigenvalues    EBANDS =      -156.05253283
  atomic energy  EATOM  =      3688.52013978
  Solvation  Ediel_sol  =         0.00000000
  ---------------------------------------------------
  free energy    TOTEN  =       -67.20386478 eV

  energy without entropy =      -67.20257437  energy(sigma->0) =      -67.20321958


--------------------------------------------------------------------------------------------------------




--------------------------------------- Iteration      1(   6)  ---------------------------------------


    POTLOK:  cpu time      0.1008: real time      0.1013
    SETDIJ:  cpu time      0.0159: real time      0.0159
     EDDAV:  cpu time     20.4591: real time     20.4593
       DOS:  cpu time      0.0015: real time      0.0015
    CHARGE:  cpu time      1.2183: real time      1.2183
    MIXING:  cpu time      0.0048: real time      0.0048
    --------------------------------------------
      LOOP:  cpu time     21.8004: real time     21.8011

 eigenvalue-minimisations  : 19160
 total energy-change (2. order) : 0.1479417E+01  (-0.1219205E+02)
 number of electron      75.9999964 magnetization      -0.0000000      0.0000000      0.0000000
 augmentation part        4.1193507 magnetization      -0.0000000      0.0000000      0.0000000

 Broyden mixing:
  rms(total) = 0.25255E+01    rms(broyden)= 0.25243E+01
  rms(prec ) = 0.26676E+01
  weight for this iteration     100.00

 eigenvalues of (default mixing * dielectric matrix)
  average eigenvalue GAMMA=   0.3937
  0.3937

 Free energy of the ion-electron system (eV)
  ---------------------------------------------------
  alpha Z        PSCENC =       183.47521989
  Ewald energy   TEWEN  =     -3027.17017058
  -Hartree energ DENC   =      -869.84791093
  -exchange      EXHF   =         0.00000000
  -V(xc)+E(xc)   XCENC  =        18.72986124
  PAW double counting   =      3862.07606192    -3717.10383405
  entropy T*S    EENTRO =        -0.00365287
  eigenvalues    EBANDS =      -204.40016216
  atomic energy  EATOM  =      3688.52013978
  Solvation  Ediel_sol  =         0.00000000
  ---------------------------------------------------
  free energy    TOTEN  =       -65.72444775 eV

  energy without entropy =      -65.72079488  energy(sigma->0) =      -65.72262131


--------------------------------------------------------------------------------------------------------




--------------------------------------- Iteration      1(   7)  ---------------------------------------


    POTLOK:  cpu time      0.0995: real time      0.1008
    SETDIJ:  cpu time      0.0157: real time      0.0157
     EDDAV:  cpu time     21.0793: real time     21.0794
       DOS:  cpu time      0.0022: real time      0.0022
    CHARGE:  cpu time      1.2111: real time      1.2111
    MIXING:  cpu time      0.0035: real time      0.0035
    --------------------------------------------
      LOOP:  cpu time     22.4111: real time     22.4126

 eigenvalue-minimisations  : 19624
 total energy-change (2. order) : 0.2468473E+01  (-0.2969162E+01)
 number of electron      75.9999974 magnetization       0.0000000     -0.0000000      0.0000000
 augmentation part        1.2088210 magnetization       0.0000000     -0.0000000      0.0000000

 Broyden mixing:
  rms(total) = 0.12793E+01    rms(broyden)= 0.12784E+01
  rms(prec ) = 0.12903E+01
  weight for this iteration     100.00

 eigenvalues of (default mixing * dielectric matrix)
  average eigenvalue GAMMA=   0.7133
  1.0320  0.3946

 Free energy of the ion-electron system (eV)
  ---------------------------------------------------
  alpha Z        PSCENC =       183.47521989
  Ewald energy   TEWEN  =     -3027.17017058
  -Hartree energ DENC   =      -887.81347692
  -exchange      EXHF   =         0.00000000
  -V(xc)+E(xc)   XCENC  =        19.21769971
  PAW double counting   =      4278.00641668    -4141.37783873
  entropy T*S    EENTRO =        -0.00000000
  eigenvalues    EBANDS =      -176.11396497
  atomic energy  EATOM  =      3688.52013978
  Solvation  Ediel_sol  =         0.00000000
  ---------------------------------------------------
  free energy    TOTEN  =       -63.25597512 eV

  energy without entropy =      -63.25597512  energy(sigma->0) =      -63.25597512


--------------------------------------------------------------------------------------------------------




--------------------------------------- Iteration      1(   8)  ---------------------------------------


    POTLOK:  cpu time      0.1013: real time      0.1013
    SETDIJ:  cpu time      0.0161: real time      0.0161
     EDDAV:  cpu time     18.5119: real time     18.5121
       DOS:  cpu time      0.0022: real time      0.0022
    CHARGE:  cpu time      1.2068: real time      1.2068
    MIXING:  cpu time      0.0049: real time      0.0049
    --------------------------------------------
      LOOP:  cpu time     19.8432: real time     19.8434

 eigenvalue-minimisations  : 16800
 total energy-change (2. order) :-0.4663639E+00  (-0.3875047E+00)
 number of electron      75.9999974 magnetization      -0.0000000     -0.0000000      0.0000000
 augmentation part        0.9866908 magnetization      -0.0000000     -0.0000000      0.0000000

 Broyden mixing:
  rms(total) = 0.57857E+00    rms(broyden)= 0.57845E+00
  rms(prec ) = 0.61345E+00
  weight for this iteration     100.00

 eigenvalues of (default mixing * dielectric matrix)
  average eigenvalue GAMMA=   0.9896
  1.8660  0.6026  0.5000

 Free energy of the ion-electron system (eV)
  ---------------------------------------------------
  alpha Z        PSCENC =       183.47521989
  Ewald energy   TEWEN  =     -3027.17017058
  -Hartree energ DENC   =      -887.60331195
  -exchange      EXHF   =         0.00000000
  -V(xc)+E(xc)   XCENC  =        19.58492610
  PAW double counting   =      4983.92520627    -4849.69884170
  entropy T*S    EENTRO =        -0.00000000
  eigenvalues    EBANDS =      -174.75550690
  atomic energy  EATOM  =      3688.52013978
  Solvation  Ediel_sol  =         0.00000000
  ---------------------------------------------------
  free energy    TOTEN  =       -63.72233907 eV

  energy without entropy =      -63.72233907  energy(sigma->0) =      -63.72233907


--------------------------------------------------------------------------------------------------------




--------------------------------------- Iteration      1(   9)  ---------------------------------------


    POTLOK:  cpu time      0.1014: real time      0.1043
    SETDIJ:  cpu time      0.0157: real time      0.0157
     EDDAV:  cpu time     19.9771: real time     19.9773
       DOS:  cpu time      0.0011: real time      0.0011
    CHARGE:  cpu time      1.1988: real time      1.1988
    MIXING:  cpu time      0.0043: real time      0.0043
    --------------------------------------------
      LOOP:  cpu time     21.2985: real time     21.3016

 eigenvalue-minimisations  : 18616
 total energy-change (2. order) : 0.1643209E+00  (-0.9390783E-01)
 number of electron      75.9999973 magnetization       0.0000000     -0.0000000      0.0000000
 augmentation part        1.5764051 magnetization       0.0000000     -0.0000000      0.0000000

 Broyden mixing:
  rms(total) = 0.19559E+00    rms(broyden)= 0.19542E+00
  rms(prec ) = 0.19775E+00
  weight for this iteration     100.00

 eigenvalues of (default mixing * dielectric matrix)
  average eigenvalue GAMMA=   1.0187
  2.2083  0.7500  0.5449  0.5717

 Free energy of the ion-electron system (eV)
  ---------------------------------------------------
  alpha Z        PSCENC =       183.47521989
  Ewald energy   TEWEN  =     -3027.17017058
  -Hartree energ DENC   =      -886.42324430
  -exchange      EXHF   =         0.00000000
  -V(xc)+E(xc)   XCENC  =        20.21658933
  PAW double counting   =      5597.59366263    -5464.34611691
  entropy T*S    EENTRO =        -0.00000000
  eigenvalues    EBANDS =      -175.42409802
  atomic energy  EATOM  =      3688.52013978
  Solvation  Ediel_sol  =         0.00000000
  ---------------------------------------------------
  free energy    TOTEN  =       -63.55801817 eV

  energy without entropy =      -63.55801817  energy(sigma->0) =      -63.55801817


--------------------------------------------------------------------------------------------------------




--------------------------------------- Iteration      1(  10)  ---------------------------------------


    POTLOK:  cpu time      0.1006: real time      0.1006
    SETDIJ:  cpu time      0.0162: real time      0.0162
     EDDAV:  cpu time     16.8958: real time     16.8960
       DOS:  cpu time      0.0019: real time      0.0019



 total charge

# of ion       s       p       d       tot
------------------------------------------
    1        0.379   0.543   4.220   5.142
    2        0.379   0.543   4.220   5.142
    3        0.379   0.543   4.220   5.142
    4        0.379   0.543   4.220   5.142
    5        1.330   2.437   0.000   3.767
    6        1.330   2.437   0.000   3.767
    7        1.330   2.437   0.000   3.767
    8        1.330   2.437   0.000   3.767
    9        1.615   3.247   0.021   4.883
   10        1.615   3.247   0.021   4.883
   11        1.615   3.247   0.021   4.883
   12        1.615   3.247   0.021   4.883
--------------------------------------------------
tot         13.295  24.911  16.963  55.169



 magnetization (x)

# of ion       s       p       d       tot
------------------------------------------
    1        0.000  -0.000  -0.001  -0.001
    2       -0.000   0.000   0.001   0.001
    3        0.000  -0.000  -0.001  -0.001
    4       -0.000   0.000   0.001   0.001
    5       -0.000  -0.001   0.000  -0.001
    6        0.000   0.001   0.000   0.001
    7       -0.000  -0.001   0.000  -0.001
    8        0.000   0.001   0.000   0.001
    9       -0.000  -0.001   0.000  -0.001
   10        0.000   0.001  -0.000   0.001
   11       -0.000  -0.001   0.000  -0.001
   12        0.000   0.001  -0.000   0.001
--------------------------------------------------
tot          0.000  -0.000   0.000   0.000



 magnetization (y)

# of ion       s       p       d       tot
------------------------------------------
    1        0.001   0.000  -0.003  -0.001
    2       -0.001  -0.000   0.003   0.001
    3        0.001   0.000  -0.003  -0.001
    4       -0.001  -0.000   0.003   0.001
    5       -0.000   0.000   0.000   0.000
    6        0.000  -0.000   0.000  -0.000
    7       -0.000   0.000   0.000   0.000
    8        0.000  -0.000   0.000  -0.000
    9        0.000   0.002   0.000   0.002
   10       -0.000  -0.002  -0.000  -0.002
   11        0.000   0.002   0.000   0.002
   12       -0.000  -0.002  -0.000  -0.002
--------------------------------------------------
tot          0.000   0.000   0.000   0.000



 magnetization (z)

# of ion       s       p       d       tot
------------------------------------------
    1        0.041   0.045   2.937   3.023
    2        0.041   0.045   2.937   3.023
    3       -0.041  -0.045  -2.937  -3.023
    4       -0.041  -0.045  -2.937  -3.023
    5       -0.007  -0.098   0.000  -0.105
    6       -0.007  -0.098   0.000  -0.105
    7        0.007   0.098   0.000   0.105
    8        0.007   0.098   0.000   0.105
    9        0.000  -0.014   0.004  -0.010
   10        0.000  -0.014   0.004  -0.010
   11       -0.000   0.014  -0.004   0.010
   12       -0.000   0.014  -0.004   0.010
--------------------------------------------------
tot         -0.000  -0.000   0.000  -0.000
 
    CHARGE:  cpu time      1.2355: real time      1.2355
    MIXING:  cpu time      0.0045: real time      0.0045
    --------------------------------------------
      LOOP:  cpu time     18.2545: real time     18.2547

 eigenvalue-minimisations  : 14696
 total energy-change (2. order) :-0.2641990E-01  (-0.2668470E-01)
 number of electron      75.9999973 magnetization      -0.0000000     -0.0000000      0.0000000
 augmentation part        1.5871494 magnetization      -0.0000000     -0.0000000      0.0000000

 Broyden mixing:
  rms(total) = 0.98943E-01    rms(broyden)= 0.98918E-01
  rms(prec ) = 0.10231E+00
  weight for this iteration     100.00

 eigenvalues of (default mixing * dielectric matrix)
  average eigenvalue GAMMA=   1.0020
  2.3265  0.9744  0.4923  0.6084  0.6084

 Free energy of the ion-electron system (eV)
  ---------------------------------------------------
  alpha Z        PSCENC =       183.47521989
  Ewald energy   TEWEN  =     -3027.17017058
  -Hartree energ DENC   =      -887.47258889
  -exchange      EXHF   =         0.00000000
  -V(xc)+E(xc)   XCENC  =        20.62490758
  PAW double counting   =      5640.44003274    -5507.50927747
  entropy T*S    EENTRO =        -0.00000000
  eigenvalues    EBANDS =      -174.49270113
  atomic energy  EATOM  =      3688.52013978
  Solvation  Ediel_sol  =         0.00000000
  ---------------------------------------------------
  free energy    TOTEN  =       -63.58443807 eV

  energy without entropy =      -63.58443807  energy(sigma->0) =      -63.58443807


--------------------------------------------------------------------------------------------------------




--------------------------------------- Iteration      1(  11)  ---------------------------------------


    POTLOK:  cpu time      0.0989: real time      0.0996
    SETDIJ:  cpu time      0.0151: real time      0.0151
     EDDAV:  cpu time     17.0988: real time     17.0989
       DOS:  cpu time      0.0012: real time      0.0012
    CHARGE:  cpu time      1.2132: real time      1.2132
    MIXING:  cpu time      0.0052: real time      0.0052
    --------------------------------------------
      LOOP:  cpu time     18.4324: real time     18.4333

 eigenvalue-minimisations  : 15176
 total energy-change (2. order) : 0.1246276E-02  (-0.7702502E-02)
 number of electron      75.9999973 magnetization      -0.0000000     -0.0000000      0.0000000
 augmentation part        1.5261881 magnetization      -0.0000000     -0.0000000      0.0000000

 Broyden mixing:
  rms(total) = 0.54551E-01    rms(broyden)= 0.54543E-01
  rms(prec ) = 0.55012E-01
  weight for this iteration     100.00

 eigenvalues of (default mixing * dielectric matrix)
  average eigenvalue GAMMA=   0.9819
  2.3722  1.2504  0.6543  0.6543  0.5083  0.4521

 Free energy of the ion-electron system (eV)
  ---------------------------------------------------
  alpha Z        PSCENC =       183.47521989
  Ewald energy   TEWEN  =     -3027.17017058
  -Hartree energ DENC   =      -887.89590962
  -exchange      EXHF   =         0.00000000
  -V(xc)+E(xc)   XCENC  =        20.70665242
  PAW double counting   =      5666.50222423    -5533.83611804
  entropy T*S    EENTRO =        -0.00000000
  eigenvalues    EBANDS =      -173.88522988
  atomic energy  EATOM  =      3688.52013978
  Solvation  Ediel_sol  =         0.00000000
  ---------------------------------------------------
  free energy    TOTEN  =       -63.58319180 eV

  energy without entropy =      -63.58319180  energy(sigma->0) =      -63.58319180


--------------------------------------------------------------------------------------------------------




--------------------------------------- Iteration      1(  12)  ---------------------------------------


    POTLOK:  cpu time      0.1023: real time      0.1037
    SETDIJ:  cpu time      0.0156: real time      0.0156
     EDDAV:  cpu time     15.2817: real time     15.2818
       DOS:  cpu time      0.0017: real time      0.0017
    CHARGE:  cpu time      1.2082: real time      1.2082
    MIXING:  cpu time      0.0050: real time      0.0050
    --------------------------------------------
      LOOP:  cpu time     16.6143: real time     16.6159

 eigenvalue-minimisations  : 12976
 total energy-change (2. order) :-0.1885363E-03  (-0.3872910E-02)
 number of electron      75.9999973 magnetization      -0.0000000     -0.0000000      0.0000000
 augmentation part        1.5051177 magnetization      -0.0000000     -0.0000000      0.0000000

 Broyden mixing:
  rms(total) = 0.28554E-01    rms(broyden)= 0.28549E-01
  rms(prec ) = 0.28837E-01
[...]
      0.88276      1.17263      0.00000         0.000000     -0.000000     -0.157546
      2.64827      3.51790      5.61092        -0.000000      0.000000      0.157546
      0.88276      1.17263      7.96497        -0.000000      0.000000     -0.157546
      2.64827      3.51790     13.57589         0.000000      0.000000      0.157546
 -----------------------------------------------------------------------------------
    total drift:                                0.000112      0.000190      0.000213


--------------------------------------------------------------------------------------------------------



  FREE ENERGIE OF THE ION-ELECTRON SYSTEM (eV)
  ---------------------------------------------------
  free  energy   TOTEN  =       -66.70105790 eV

  energy  without entropy=      -66.70105790  energy(sigma->0) =      -66.70105790
 


--------------------------------------------------------------------------------------------------------


    POTLOK:  cpu time      0.0997: real time      0.0997


--------------------------------------------------------------------------------------------------------


     LOOP+:  cpu time    615.6962: real time    615.7277
    4ORBIT:  cpu time      0.0000: real time      0.0000

 Spin-Orbit-Coupling matrix elements

 Ion:    1  E_soc:     -0.0049327
 l=   1
     0.0000000    -0.0001963    -0.0002026
    -0.0001963     0.0000000    -0.0001896
    -0.0002026    -0.0001896     0.0000000
 l=   2
     0.0000000    -0.0002045     0.0000000    -0.0001193    -0.0003281
    -0.0002045     0.0000000    -0.0005636    -0.0000847    -0.0000968
     0.0000000    -0.0005636     0.0000000    -0.0003886     0.0000000
    -0.0001193    -0.0000847    -0.0003886     0.0000000    -0.0000924
    -0.0003281    -0.0000968     0.0000000    -0.0000924     0.0000000
 l=   3
     0.0000000     0.0000000     0.0000000     0.0000000     0.0000000     0.0000000     0.0000000
     0.0000000     0.0000000     0.0000000     0.0000000     0.0000000     0.0000000     0.0000000
     0.0000000     0.0000000     0.0000000     0.0000000     0.0000000     0.0000000     0.0000000
     0.0000000     0.0000000     0.0000000     0.0000000     0.0000000     0.0000000     0.0000000
     0.0000000     0.0000000     0.0000000     0.0000000     0.0000000     0.0000000     0.0000000
     0.0000000     0.0000000     0.0000000     0.0000000     0.0000000     0.0000000     0.0000000
     0.0000000     0.0000000     0.0000000     0.0000000     0.0000000     0.0000000     0.0000000

 Ion:    2  E_soc:     -0.0049327
 l=   1
     0.0000000    -0.0001963    -0.0002026
    -0.0001963     0.0000000    -0.0001896
    -0.0002026    -0.0001896     0.0000000
 l=   2
     0.0000000    -0.0002045     0.0000000    -0.0001193    -0.0003281
    -0.0002045     0.0000000    -0.0005636    -0.0000847    -0.0000968
     0.0000000    -0.0005636     0.0000000    -0.0003886     0.0000000
    -0.0001193    -0.0000847    -0.0003886     0.0000000    -0.0000924
    -0.0003281    -0.0000968     0.0000000    -0.0000924     0.0000000
 l=   3
     0.0000000     0.0000000     0.0000000     0.0000000     0.0000000     0.0000000     0.0000000
     0.0000000     0.0000000     0.0000000     0.0000000     0.0000000     0.0000000     0.0000000
     0.0000000     0.0000000     0.0000000     0.0000000     0.0000000     0.0000000     0.0000000
     0.0000000     0.0000000     0.0000000     0.0000000     0.0000000     0.0000000     0.0000000
     0.0000000     0.0000000     0.0000000     0.0000000     0.0000000     0.0000000     0.0000000
     0.0000000     0.0000000     0.0000000     0.0000000     0.0000000     0.0000000     0.0000000
     0.0000000     0.0000000     0.0000000     0.0000000     0.0000000     0.0000000     0.0000000

 Ion:    3  E_soc:     -0.0049327
 l=   1
     0.0000000    -0.0001963    -0.0002026
    -0.0001963     0.0000000    -0.0001896
    -0.0002026    -0.0001896     0.0000000
 l=   2
     0.0000000    -0.0002045     0.0000000    -0.0001193    -0.0003281
    -0.0002045     0.0000000    -0.0005636    -0.0000847    -0.0000968
     0.0000000    -0.0005636     0.0000000    -0.0003886     0.0000000
    -0.0001193    -0.0000847    -0.0003886     0.0000000    -0.0000924
    -0.0003281    -0.0000968     0.0000000    -0.0000924     0.0000000
 l=   3
     0.0000000     0.0000000     0.0000000     0.0000000     0.0000000     0.0000000     0.0000000
     0.0000000     0.0000000     0.0000000     0.0000000     0.0000000     0.0000000     0.0000000
     0.0000000     0.0000000     0.0000000     0.0000000     0.0000000     0.0000000     0.0000000
     0.0000000     0.0000000     0.0000000     0.0000000     0.0000000     0.0000000     0.0000000
     0.0000000     0.0000000     0.0000000     0.0000000     0.0000000     0.0000000     0.0000000
     0.0000000     0.0000000     0.0000000     0.0000000     0.0000000     0.0000000     0.0000000
     0.0000000     0.0000000     0.0000000     0.0000000     0.0000000     0.0000000     0.0000000

 Ion:    4  E_soc:     -0.0049327
 l=   1
     0.0000000    -0.0001963    -0.0002026
    -0.0001963     0.0000000    -0.0001896
    -0.0002026    -0.0001896     0.0000000
 l=   2
     0.0000000    -0.0002045     0.0000000    -0.0001193    -0.0003281
    -0.0002045     0.0000000    -0.0005636    -0.0000847    -0.0000968
     0.0000000    -0.0005636     0.0000000    -0.0003886     0.0000000
    -0.0001193    -0.0000847    -0.0003886     0.0000000    -0.0000924
    -0.0003281    -0.0000968     0.0000000    -0.0000924     0.0000000
 l=   3
     0.0000000     0.0000000     0.0000000     0.0000000     0.0000000     0.0000000     0.0000000
     0.0000000     0.0000000     0.0000000     0.0000000     0.0000000     0.0000000     0.0000000
     0.0000000     0.0000000     0.0000000     0.0000000     0.0000000     0.0000000     0.0000000
     0.0000000     0.0000000     0.0000000     0.0000000     0.0000000     0.0000000     0.0000000
     0.0000000     0.0000000     0.0000000     0.0000000     0.0000000     0.0000000     0.0000000
     0.0000000     0.0000000     0.0000000     0.0000000     0.0000000     0.0000000     0.0000000
     0.0000000     0.0000000     0.0000000     0.0000000     0.0000000     0.0000000     0.0000000

 Ion:    5  E_soc:     -0.0017018
 l=   1
     0.0000000    -0.0002872    -0.0002663
    -0.0002872     0.0000000    -0.0002973
    -0.0002663    -0.0002973     0.0000000
 l=   2
     0.0000000     0.0000000     0.0000000     0.0000000     0.0000000
     0.0000000     0.0000000     0.0000000     0.0000000     0.0000000
     0.0000000     0.0000000     0.0000000     0.0000000     0.0000000
     0.0000000     0.0000000     0.0000000     0.0000000     0.0000000
     0.0000000     0.0000000     0.0000000     0.0000000     0.0000000
 l=   3
     0.0000000     0.0000000     0.0000000     0.0000000     0.0000000     0.0000000     0.0000000
     0.0000000     0.0000000     0.0000000     0.0000000     0.0000000     0.0000000     0.0000000
     0.0000000     0.0000000     0.0000000     0.0000000     0.0000000     0.0000000     0.0000000
     0.0000000     0.0000000     0.0000000     0.0000000     0.0000000     0.0000000     0.0000000
     0.0000000     0.0000000     0.0000000     0.0000000     0.0000000     0.0000000     0.0000000
     0.0000000     0.0000000     0.0000000     0.0000000     0.0000000     0.0000000     0.0000000
     0.0000000     0.0000000     0.0000000     0.0000000     0.0000000     0.0000000     0.0000000

 Ion:    6  E_soc:     -0.0017018
 l=   1
     0.0000000    -0.0002872    -0.0002663
    -0.0002872     0.0000000    -0.0002973
    -0.0002663    -0.0002973     0.0000000
 l=   2
     0.0000000     0.0000000     0.0000000     0.0000000     0.0000000
     0.0000000     0.0000000     0.0000000     0.0000000     0.0000000
     0.0000000     0.0000000     0.0000000     0.0000000     0.0000000
     0.0000000     0.0000000     0.0000000     0.0000000     0.0000000
     0.0000000     0.0000000     0.0000000     0.0000000     0.0000000
 l=   3
     0.0000000     0.0000000     0.0000000     0.0000000     0.0000000     0.0000000     0.0000000
     0.0000000     0.0000000     0.0000000     0.0000000     0.0000000     0.0000000     0.0000000
     0.0000000     0.0000000     0.0000000     0.0000000     0.0000000     0.0000000     0.0000000
     0.0000000     0.0000000     0.0000000     0.0000000     0.0000000     0.0000000     0.0000000
     0.0000000     0.0000000     0.0000000     0.0000000     0.0000000     0.0000000     0.0000000
     0.0000000     0.0000000     0.0000000     0.0000000     0.0000000     0.0000000     0.0000000
     0.0000000     0.0000000     0.0000000     0.0000000     0.0000000     0.0000000     0.0000000

 Ion:    7  E_soc:     -0.0017018
 l=   1
     0.0000000    -0.0002872    -0.0002663
    -0.0002872     0.0000000    -0.0002973
    -0.0002663    -0.0002973     0.0000000
 l=   2
     0.0000000     0.0000000     0.0000000     0.0000000     0.0000000
     0.0000000     0.0000000     0.0000000     0.0000000     0.0000000
     0.0000000     0.0000000     0.0000000     0.0000000     0.0000000
     0.0000000     0.0000000     0.0000000     0.0000000     0.0000000
     0.0000000     0.0000000     0.0000000     0.0000000     0.0000000
 l=   3
     0.0000000     0.0000000     0.0000000     0.0000000     0.0000000     0.0000000     0.0000000
     0.0000000     0.0000000     0.0000000     0.0000000     0.0000000     0.0000000     0.0000000
     0.0000000     0.0000000     0.0000000     0.0000000     0.0000000     0.0000000     0.0000000
     0.0000000     0.0000000     0.0000000     0.0000000     0.0000000     0.0000000     0.0000000
     0.0000000     0.0000000     0.0000000     0.0000000     0.0000000     0.0000000     0.0000000
     0.0000000     0.0000000     0.0000000     0.0000000     0.0000000     0.0000000     0.0000000
     0.0000000     0.0000000     0.0000000     0.0000000     0.0000000     0.0000000     0.0000000

 Ion:    8  E_soc:     -0.0017018
 l=   1
     0.0000000    -0.0002872    -0.0002663
    -0.0002872     0.0000000    -0.0002973
    -0.0002663    -0.0002973     0.0000000
 l=   2
     0.0000000     0.0000000     0.0000000     0.0000000     0.0000000
     0.0000000     0.0000000     0.0000000     0.0000000     0.0000000
     0.0000000     0.0000000     0.0000000     0.0000000     0.0000000
     0.0000000     0.0000000     0.0000000     0.0000000     0.0000000
     0.0000000     0.0000000     0.0000000     0.0000000     0.0000000
 l=   3
     0.0000000     0.0000000     0.0000000     0.0000000     0.0000000     0.0000000     0.0000000
     0.0000000     0.0000000     0.0000000     0.0000000     0.0000000     0.0000000     0.0000000
     0.0000000     0.0000000     0.0000000     0.0000000     0.0000000     0.0000000     0.0000000
     0.0000000     0.0000000     0.0000000     0.0000000     0.0000000     0.0000000     0.0000000
     0.0000000     0.0000000     0.0000000     0.0000000     0.0000000     0.0000000     0.0000000
     0.0000000     0.0000000     0.0000000     0.0000000     0.0000000     0.0000000     0.0000000
     0.0000000     0.0000000     0.0000000     0.0000000     0.0000000     0.0000000     0.0000000

 Ion:    9  E_soc:     -0.0541362
 l=   1
     0.0000000    -0.0091861    -0.0090796
    -0.0091861     0.0000000    -0.0088045
    -0.0090796    -0.0088045     0.0000000
 l=   2
     0.0000000    -0.0000002     0.0000000    -0.0000001    -0.0000013
    -0.0000002     0.0000000    -0.0000000     0.0000015     0.0000008
     0.0000000    -0.0000000     0.0000000     0.0000031     0.0000000
    -0.0000001     0.0000015     0.0000031     0.0000000    -0.0000017
    -0.0000013     0.0000008     0.0000000    -0.0000017     0.0000000
 l=   3
     0.0000000     0.0000000     0.0000000     0.0000000     0.0000000     0.0000000     0.0000000
     0.0000000     0.0000000     0.0000000     0.0000000     0.0000000     0.0000000     0.0000000
     0.0000000     0.0000000     0.0000000     0.0000000     0.0000000     0.0000000     0.0000000
     0.0000000     0.0000000     0.0000000     0.0000000     0.0000000     0.0000000     0.0000000
     0.0000000     0.0000000     0.0000000     0.0000000     0.0000000     0.0000000     0.0000000
     0.0000000     0.0000000     0.0000000     0.0000000     0.0000000     0.0000000     0.0000000
     0.0000000     0.0000000     0.0000000     0.0000000     0.0000000     0.0000000     0.0000000

 Ion:   10  E_soc:     -0.0541362
 l=   1
     0.0000000    -0.0091861    -0.0090796
    -0.0091861     0.0000000    -0.0088045
    -0.0090796    -0.0088045     0.0000000
 l=   2
     0.0000000    -0.0000002     0.0000000    -0.0000001    -0.0000013
    -0.0000002     0.0000000    -0.0000000     0.0000015     0.0000008
     0.0000000    -0.0000000     0.0000000     0.0000031     0.0000000
    -0.0000001     0.0000015     0.0000031     0.0000000    -0.0000017
    -0.0000013     0.0000008     0.0000000    -0.0000017     0.0000000
 l=   3
     0.0000000     0.0000000     0.0000000     0.0000000     0.0000000     0.0000000     0.0000000
     0.0000000     0.0000000     0.0000000     0.0000000     0.0000000     0.0000000     0.0000000
     0.0000000     0.0000000     0.0000000     0.0000000     0.0000000     0.0000000     0.0000000
     0.0000000     0.0000000     0.0000000     0.0000000     0.0000000     0.0000000     0.0000000
     0.0000000     0.0000000     0.0000000     0.0000000     0.0000000     0.0000000     0.0000000
     0.0000000     0.0000000     0.0000000     0.0000000     0.0000000     0.0000000     0.0000000
     0.0000000     0.0000000     0.0000000     0.0000000     0.0000000     0.0000000     0.0000000

 Ion:   11  E_soc:     -0.0541362
 l=   1
     0.0000000    -0.0091861    -0.0090796
    -0.0091861     0.0000000    -0.0088045
    -0.0090796    -0.0088045     0.0000000
 l=   2
     0.0000000    -0.0000002     0.0000000    -0.0000001    -0.0000013
    -0.0000002     0.0000000    -0.0000000     0.0000015     0.0000008
     0.0000000    -0.0000000     0.0000000     0.0000031     0.0000000
    -0.0000001     0.0000015     0.0000031     0.0000000    -0.0000017
    -0.0000013     0.0000008     0.0000000    -0.0000017     0.0000000
 l=   3
     0.0000000     0.0000000     0.0000000     0.0000000     0.0000000     0.0000000     0.0000000
     0.0000000     0.0000000     0.0000000     0.0000000     0.0000000     0.0000000     0.0000000
     0.0000000     0.0000000     0.0000000     0.0000000     0.0000000     0.0000000     0.0000000
     0.0000000     0.0000000     0.0000000     0.0000000     0.0000000     0.0000000     0.0000000
     0.0000000     0.0000000     0.0000000     0.0000000     0.0000000     0.0000000     0.0000000
     0.0000000     0.0000000     0.0000000     0.0000000     0.0000000     0.0000000     0.0000000
     0.0000000     0.0000000     0.0000000     0.0000000     0.0000000     0.0000000     0.0000000

 Ion:   12  E_soc:     -0.0541362
 l=   1
     0.0000000    -0.0091861    -0.0090796
    -0.0091861     0.0000000    -0.0088045
    -0.0090796    -0.0088045     0.0000000
 l=   2
     0.0000000    -0.0000002     0.0000000    -0.0000001    -0.0000013
    -0.0000002     0.0000000    -0.0000000     0.0000015     0.0000008
     0.0000000    -0.0000000     0.0000000     0.0000031     0.0000000
    -0.0000001     0.0000015     0.0000031     0.0000000    -0.0000017
    -0.0000013     0.0000008     0.0000000    -0.0000017     0.0000000
 l=   3
     0.0000000     0.0000000     0.0000000     0.0000000     0.0000000     0.0000000     0.0000000
     0.0000000     0.0000000     0.0000000     0.0000000     0.0000000     0.0000000     0.0000000
     0.0000000     0.0000000     0.0000000     0.0000000     0.0000000     0.0000000     0.0000000
     0.0000000     0.0000000     0.0000000     0.0000000     0.0000000     0.0000000     0.0000000
     0.0000000     0.0000000     0.0000000     0.0000000     0.0000000     0.0000000     0.0000000
     0.0000000     0.0000000     0.0000000     0.0000000     0.0000000     0.0000000     0.0000000
     0.0000000     0.0000000     0.0000000     0.0000000     0.0000000     0.0000000     0.0000000



 total charge

# of ion       s       p       d       tot
------------------------------------------
    1        0.378   0.542   4.201   5.122
    2        0.378   0.542   4.201   5.122
    3        0.378   0.542   4.201   5.122
    4        0.378   0.542   4.201   5.122
    5        1.331   2.447   0.000   3.778
    6        1.331   2.447   0.000   3.778
    7        1.331   2.447   0.000   3.778
    8        1.331   2.447   0.000   3.778
    9        1.615   3.250   0.021   4.886
   10        1.615   3.250   0.021   4.886
   11        1.615   3.250   0.021   4.886
   12        1.615   3.250   0.021   4.886
--------------------------------------------------
tot         13.295  24.961  16.888  55.144



 magnetization (x)

# of ion       s       p       d       tot
------------------------------------------
    1        0.000   0.000   0.000   0.000
    2        0.000   0.000   0.000   0.000
    3        0.000   0.000   0.000   0.000
    4        0.000   0.000   0.000   0.000
    5        0.000   0.000   0.000   0.000
    6        0.000   0.000   0.000   0.000
    7        0.000   0.000   0.000   0.000
    8        0.000   0.000   0.000   0.000
    9        0.000   0.000   0.000   0.000
   10        0.000   0.000   0.000   0.000
   11        0.000   0.000   0.000   0.000
   12        0.000   0.000   0.000   0.000
--------------------------------------------------
tot          0.000   0.000   0.000   0.000



 magnetization (y)

# of ion       s       p       d       tot
------------------------------------------
    1        0.000   0.000   0.000   0.000
    2        0.000   0.000   0.000   0.000
    3        0.000   0.000   0.000   0.000
    4        0.000   0.000   0.000   0.000
    5        0.000   0.000   0.000   0.000
    6        0.000   0.000   0.000   0.000
    7        0.000   0.000   0.000   0.000
    8        0.000   0.000   0.000   0.000
    9        0.000   0.000   0.000   0.000
   10        0.000   0.000   0.000   0.000
   11        0.000   0.000   0.000   0.000
   12        0.000   0.000   0.000   0.000
--------------------------------------------------
tot          0.000   0.000   0.000   0.000



 magnetization (z)

# of ion       s       p       d       tot
------------------------------------------
    1        0.042   0.046   2.938   3.027
    2        0.042   0.046   2.938   3.027
    3       -0.042  -0.046  -2.938  -3.027
    4       -0.042  -0.046  -2.938  -3.027
    5       -0.007  -0.101   0.000  -0.108
    6       -0.007  -0.101   0.000  -0.108
    7        0.007   0.101   0.000   0.108
    8        0.007   0.101   0.000   0.108
    9       -0.000  -0.016   0.004  -0.012
   10       -0.000  -0.016   0.004  -0.012
   11        0.000   0.016  -0.004   0.012
   12        0.000   0.016  -0.004   0.012
--------------------------------------------------
tot          0.000   0.000   0.000   0.000
 

 total amount of memory used by VASP MPI-rank0   212109. kBytes
=======================================================================

   base      :      30000. kBytes
   nonl-proj :      82096. kBytes
   fftplans  :       3790. kBytes
   grid      :      19353. kBytes
   one-center:        746. kBytes
   wavefun   :      76124. kBytes
 
  
  
 General timing and accounting informations for this job:
 ========================================================
  
                  Total CPU time used (sec):      620.730
                            User time (sec):      605.102
                          System time (sec):       15.628
                         Elapsed time (sec):      621.280
  
                   Maximum memory used (kb):      315956.
                   Average memory used (kb):          N/A
  
                          Minor page faults:        98063
                          Major page faults:         1816
                 Voluntary context switches:          448
